/*--------------------------------*- C++ -*----------------------------------*\
  =========                 |
  \\      /  F ield         | OpenFOAM: The Open Source CFD Toolbox
   \\    /   O peration     | Website:  https://openfoam.org
    \\  /    A nd           | Version:  8
     \\/     M anipulation  |
\*---------------------------------------------------------------------------*/
FoamFile
{
    version     2.0;
    format      ascii;
    class       volScalarField;
    location    "817";
    object      nut;
}
// * * * * * * * * * * * * * * * * * * * * * * * * * * * * * * * * * * * * * //

dimensions      [0 2 -1 0 0 0 0];

internalField   nonuniform List<scalar> 
20540
(
7.98418e-05
0.000180573
7.86526e-05
0.000183423
7.67936e-05
0.000187878
7.44961e-05
0.000193267
7.18939e-05
0.000199786
7.04178e-05
0.000207672
7.1409e-05
0.000217213
7.39588e-05
0.000228725
7.72103e-05
0.000240067
7.9795e-05
0.000241863
7.86366e-05
0.000227624
7.41376e-05
0.000205439
6.96359e-05
0.000186418
6.52963e-05
0.00016907
5.92783e-05
0.000143685
5.18726e-05
0.000112913
4.37384e-05
8.40098e-05
3.44602e-05
5.76765e-05
2.50937e-05
3.59283e-05
1.84173e-05
2.28391e-05
1.23125e-05
1.65703e-05
2.61957e-06
1.22372e-05
0
1.09923e-05
0
1.28482e-05
0
1.46479e-05
6.49546e-06
2.09309e-05
1.71455e-05
3.47822e-05
3.22973e-05
4.57633e-05
4.19304e-05
4.37286e-05
4.14225e-05
2.94461e-05
3.46819e-05
7.33324e-06
1.9239e-05
0
1.59367e-06
0
0
0
0
3.89517e-06
0
3.38511e-05
0
5.21748e-05
6.97736e-07
5.45899e-05
1.52682e-05
4.25726e-05
2.1638e-05
2.61466e-05
1.95901e-05
1.99483e-05
2.23035e-05
2.10841e-05
2.98489e-05
3.01177e-05
2.89884e-05
4.87353e-05
2.11409e-05
6.38325e-05
1.08218e-05
6.56239e-05
6.17937e-06
6.56525e-05
1.35619e-05
8.14745e-05
2.59991e-05
0.000108055
3.72374e-05
0.000130757
4.40259e-05
0.000141405
4.71133e-05
0.000141919
4.8434e-05
0.000140502
4.76651e-05
0.00013996
4.5781e-05
0.000139446
4.39742e-05
0.000138958
4.2471e-05
0.000138529
4.12204e-05
0.000138263
4.01799e-05
0.000138307
3.93142e-05
0.000138603
3.88015e-05
0.000138932
3.88025e-05
0.000139206
3.90628e-05
0.000139434
3.93187e-05
0.000139624
3.94832e-05
0.000139746
7.9469e-05
6.65411e-05
5.93918e-05
5.74586e-05
4.92881e-05
4.57864e-05
4.28561e-05
3.66083e-05
3.38146e-05
3.21322e-05
3.08506e-05
2.89132e-05
2.81958e-05
2.50645e-05
1.86677e-05
2.00929e-05
2.14687e-05
2.25804e-05
2.35206e-05
2.38005e-05
2.44714e-05
2.6206e-05
2.70495e-05
2.44593e-05
2.07119e-05
1.64258e-05
1.26944e-05
1.07807e-05
9.4301e-06
8.12907e-06
6.87512e-06
5.66701e-06
4.50523e-06
6.24783e-06
1.11564e-05
1.09352e-05
1.11853e-05
1.14235e-05
1.03813e-05
4.78483e-06
4.77584e-07
0
0
0
0
0
0
8.58297e-06
1.33e-05
1.79007e-05
1.30438e-05
8.78398e-06
9.29607e-06
1.16401e-05
1.33031e-05
1.23914e-05
1.40198e-05
1.47331e-05
1.59686e-05
1.70848e-05
1.85146e-05
2.0529e-05
2.20569e-05
2.16138e-05
2.06387e-05
1.92973e-05
1.77042e-05
1.58356e-05
1.36719e-05
1.22628e-05
1.60366e-05
2.03674e-05
2.39317e-05
2.70521e-05
2.85234e-05
2.50417e-05
1.95636e-05
8.77044e-06
5.60085e-06
1.71954e-05
7.406e-06
7.7845e-06
6.50808e-06
0
0
0
3.11569e-05
3.13815e-05
0.000162192
0.000135057
0.00012058
0.000116341
0.0001001
9.32639e-05
8.74155e-05
7.52669e-05
6.99702e-05
6.6563e-05
6.39922e-05
6.00339e-05
5.85476e-05
5.24112e-05
3.97389e-05
4.25884e-05
4.53365e-05
4.75474e-05
4.94244e-05
4.98969e-05
5.09122e-05
5.36601e-05
5.51843e-05
5.01947e-05
4.31033e-05
3.49584e-05
2.84154e-05
2.50463e-05
2.23489e-05
1.975e-05
1.72452e-05
1.48323e-05
1.25375e-05
1.60453e-05
2.58612e-05
2.54702e-05
2.59687e-05
2.64145e-05
2.44759e-05
1.33001e-05
4.34561e-06
0
0
0
0
0
9.56954e-07
2.02537e-05
3.09743e-05
4.10185e-05
3.08897e-05
2.24148e-05
2.33206e-05
2.78789e-05
3.07127e-05
2.91007e-05
3.28459e-05
3.47585e-05
3.74473e-05
4.01762e-05
4.37389e-05
4.75873e-05
4.99343e-05
4.90778e-05
4.71263e-05
4.45095e-05
4.14058e-05
3.77699e-05
3.3561e-05
3.06659e-05
3.77396e-05
4.6763e-05
5.30372e-05
5.90727e-05
6.35772e-05
5.65703e-05
4.52722e-05
2.29784e-05
1.39329e-05
3.72273e-05
2.09193e-05
2.17707e-05
2.23517e-05
9.33033e-06
6.29452e-06
0
6.58901e-05
8.10966e-05
0.00016912
0.000139567
0.000124762
0.000119991
0.000103818
9.71355e-05
9.12884e-05
8.00763e-05
7.52359e-05
7.17331e-05
6.90889e-05
6.49999e-05
6.33982e-05
5.75323e-05
4.51153e-05
4.79653e-05
5.07135e-05
5.29038e-05
5.47415e-05
5.50665e-05
5.58312e-05
5.7401e-05
5.85714e-05
5.34395e-05
4.70425e-05
4.02754e-05
3.55873e-05
3.2795e-05
3.00977e-05
2.74988e-05
2.49941e-05
2.25813e-05
2.03811e-05
2.39183e-05
3.36438e-05
3.34206e-05
3.39862e-05
3.44014e-05
3.27089e-05
2.15617e-05
1.18177e-05
6.06274e-06
3.06048e-06
4.06564e-06
5.99337e-06
7.85078e-06
8.56544e-06
2.8053e-05
4.25947e-05
5.3197e-05
4.21342e-05
3.33357e-05
3.3979e-05
3.81848e-05
4.03994e-05
3.94651e-05
4.50906e-05
4.81488e-05
5.15251e-05
5.53823e-05
5.98456e-05
6.32781e-05
6.38705e-05
6.28733e-05
6.06243e-05
5.8098e-05
5.51385e-05
5.16725e-05
4.7663e-05
4.4718e-05
5.07855e-05
6.08279e-05
6.54573e-05
7.17862e-05
7.90979e-05
7.191e-05
5.98712e-05
3.54755e-05
2.17554e-05
4.5378e-05
3.6747e-05
3.61009e-05
4.23546e-05
3.27311e-05
3.15342e-05
1.80961e-05
7.58074e-05
0.000119048
0.000176864
0.000145023
0.000129893
0.000125633
0.000108761
0.000101924
9.59799e-05
8.61968e-05
8.16063e-05
7.83112e-05
7.52264e-05
7.13583e-05
6.97203e-05
6.37273e-05
5.16042e-05
5.44701e-05
5.72181e-05
5.93834e-05
6.10728e-05
6.132e-05
6.2242e-05
6.32534e-05
6.42313e-05
5.87672e-05
5.245e-05
4.74246e-05
4.43049e-05
4.18002e-05
3.92451e-05
3.67829e-05
3.4368e-05
3.19552e-05
2.99044e-05
3.34133e-05
4.24831e-05
4.24928e-05
4.324e-05
4.37481e-05
4.24407e-05
3.15556e-05
2.11012e-05
1.53109e-05
1.37881e-05
1.50553e-05
1.69853e-05
1.87605e-05
1.88927e-05
4.08802e-05
5.91737e-05
6.82154e-05
5.69785e-05
4.71992e-05
4.72066e-05
5.10656e-05
5.31105e-05
5.49738e-05
6.30223e-05
6.73132e-05
7.13945e-05
7.58991e-05
8.06051e-05
8.36165e-05
8.24067e-05
8.08459e-05
7.79825e-05
7.532e-05
7.23447e-05
6.89486e-05
6.5162e-05
6.22886e-05
6.76218e-05
7.86003e-05
8.08262e-05
8.85194e-05
9.72738e-05
9.0349e-05
7.81473e-05
5.2465e-05
3.55558e-05
5.68284e-05
5.83081e-05
5.44653e-05
6.62555e-05
6.41641e-05
6.12823e-05
4.72213e-05
9.04609e-05
0.000142635
0.000185935
0.000151624
0.000136028
0.000134064
0.000115841
0.000107884
0.000101692
9.37496e-05
9.02866e-05
8.81367e-05
8.43861e-05
8.11088e-05
7.95456e-05
7.17764e-05
5.94251e-05
6.23391e-05
6.50869e-05
6.72218e-05
6.86527e-05
6.89218e-05
6.99972e-05
7.07953e-05
7.17727e-05
6.64968e-05
6.00356e-05
5.63862e-05
5.4024e-05
5.17792e-05
4.95391e-05
4.73805e-05
4.52067e-05
4.29214e-05
4.14774e-05
4.51388e-05
5.46128e-05
5.43385e-05
5.4747e-05
5.53955e-05
5.45514e-05
4.34666e-05
3.28948e-05
2.72591e-05
2.67662e-05
2.83621e-05
3.10305e-05
3.33855e-05
3.42976e-05
6.04177e-05
7.92163e-05
8.56231e-05
7.56338e-05
6.50233e-05
6.38322e-05
6.8291e-05
7.12812e-05
7.89606e-05
8.73824e-05
9.22052e-05
9.65807e-05
0.000101159
0.000105993
0.000108449
0.000105875
0.000104216
0.000101171
9.81937e-05
9.5013e-05
9.15724e-05
8.82e-05
8.55042e-05
9.12112e-05
0.000102278
0.00010188
0.000109716
0.000118528
0.000113837
0.000102791
7.76489e-05
5.85906e-05
7.41046e-05
8.61159e-05
8.00581e-05
9.77959e-05
0.000106586
9.50613e-05
8.86041e-05
0.000115235
0.000160507
0.000196452
0.000161262
0.000143142
0.000144373
0.000126184
0.000116239
0.000108749
0.000103895
0.000103475
0.000103435
9.95364e-05
9.65858e-05
9.50486e-05
8.43283e-05
6.88725e-05
7.18445e-05
7.46062e-05
7.67042e-05
7.7805e-05
7.82174e-05
7.9308e-05
7.99192e-05
8.08836e-05
7.62347e-05
7.02496e-05
6.76087e-05
6.54527e-05
6.33748e-05
6.13734e-05
6.02843e-05
5.92098e-05
5.8072e-05
5.82194e-05
6.24408e-05
7.67083e-05
7.59796e-05
7.54761e-05
7.58325e-05
7.51659e-05
6.15714e-05
4.95329e-05
4.38004e-05
4.44866e-05
4.74098e-05
5.17461e-05
5.58186e-05
5.78334e-05
8.69672e-05
0.000103928
0.000109551
0.000100729
8.84578e-05
8.65376e-05
9.36201e-05
9.97833e-05
0.000112466
0.000118394
0.000123046
0.000127469
0.000132129
0.000137174
0.000138707
0.000135106
0.000133573
0.000131039
0.000128164
0.000125121
0.000122082
0.000119627
0.000117832
0.000124377
0.000133299
0.000131911
0.000137126
0.000145886
0.000145949
0.000137966
0.000115159
9.3381e-05
0.000103801
0.000125116
0.000116278
0.000144072
0.000160245
0.000137668
0.000142788
0.000154172
0.000201954
0.000207786
0.000176604
0.00015172
0.000155049
0.00013998
0.000128655
0.000120568
0.000119913
0.000122691
0.000124782
0.000121312
0.000118369
0.000116778
0.000104882
8.26488e-05
8.57305e-05
8.86256e-05
9.05189e-05
9.16977e-05
9.13395e-05
9.12116e-05
9.10867e-05
9.2606e-05
8.98143e-05
8.54269e-05
8.39784e-05
8.2993e-05
8.20436e-05
8.11327e-05
8.21176e-05
8.33047e-05
8.45098e-05
8.72435e-05
9.34204e-05
0.000116257
0.000115663
0.000114632
0.000114119
0.000113576
9.48765e-05
7.97717e-05
7.24417e-05
7.50301e-05
8.02276e-05
8.56314e-05
9.04595e-05
9.25198e-05
0.000126696
0.00014186
0.000149356
0.000140542
0.000125011
0.000123324
0.000134711
0.000144769
0.000158901
0.000161376
0.000165447
0.000169382
0.000173711
0.000178468
0.000178757
0.000173918
0.000171597
0.000169698
0.000167442
0.000164922
0.000163302
0.000162517
0.000162666
0.000170072
0.000175036
0.000172817
0.000177436
0.000185778
0.000187009
0.000184546
0.000168211
0.000145617
0.000151924
0.000186314
0.000169393
0.000217279
0.000230325
0.000189074
0.000196398
0.000210918
0.000251391
0.000219799
0.000196044
0.00016536
0.00016873
0.000159456
0.000149329
0.00014471
0.000146954
0.000150816
0.000154014
0.000150895
0.000147915
0.000146182
0.000135302
0.000106474
0.000110129
0.000113711
0.000116112
0.000118286
0.00011534
0.000112881
0.000111678
0.000114364
0.000115666
0.000115505
0.000116602
0.000118782
0.000120886
0.000122912
0.000125993
0.000129535
0.000133087
0.000138723
0.000148263
0.00017919
0.000178559
0.000176745
0.00017504
0.000174909
0.000153271
0.000136812
0.000125338
0.000129685
0.00013668
0.000143063
0.000146537
0.000148399
0.000187175
0.000200205
0.000210411
0.000203211
0.000186822
0.000185285
0.000200402
0.000212682
0.000225333
0.000225586
0.000228046
0.000230253
0.000233383
0.000236598
0.000235852
0.000229411
0.000226019
0.000224271
0.000222655
0.000221287
0.000221897
0.000223353
0.000225588
0.000233768
0.000235499
0.000229658
0.000236403
0.000241971
0.000236144
0.000242614
0.000235623
0.000219334
0.000220155
0.000270289
0.000245749
0.000305973
0.000301183
0.000234727
0.000245253
0.000292651
0.000303375
0.000233649
0.000216727
0.000188159
0.000190011
0.000190979
0.000185906
0.00018558
0.000190948
0.000194022
0.000198437
0.000195149
0.000190661
0.00018752
0.000177001
0.000144838
0.000149523
0.000154256
0.000158894
0.000161274
0.0001566
0.000153955
0.000155492
0.000161115
0.000169008
0.000175505
0.000180021
0.000185504
0.000190858
0.000196309
0.00020196
0.000207953
0.000213802
0.000221556
0.000232987
0.000267942
0.000267727
0.000264647
0.000261758
0.000264126
0.000245244
0.0002268
0.000209356
0.000215463
0.00022344
0.000229514
0.000230276
0.000231214
0.000266539
0.000278768
0.000292188
0.000289707
0.000276001
0.000275524
0.000291289
0.000304156
0.000313732
0.000313298
0.000313789
0.000314022
0.000315153
0.000316161
0.000314941
0.000307192
0.000304092
0.00030256
0.000301856
0.000302913
0.000305676
0.000309122
0.000313229
0.000321226
0.00031956
0.000309465
0.000311668
0.00031291
0.000299898
0.00031539
0.000317405
0.000312121
0.000299514
0.000352767
0.000325311
0.000364712
0.000349967
0.000297283
0.000326665
0.000391679
0.000391691
0.000251153
0.000239143
0.000219801
0.000224556
0.000242207
0.000242995
0.000246104
0.000257093
0.000259451
0.000266415
0.000264318
0.00025724
0.00025103
0.000240093
0.000203388
0.000208341
0.00021379
0.0002209
0.000222702
0.000221864
0.000223444
0.000232334
0.000243796
0.000259325
0.000271289
0.000278728
0.000286096
0.000293224
0.00030056
0.00030809
0.000315531
0.000322702
0.000331858
0.000344219
0.000379073
0.000380789
0.000376744
0.000372955
0.000380363
0.000365225
0.000343787
0.000322928
0.000329522
0.00033601
0.000337445
0.000335309
0.000334219
0.000362088
0.000377834
0.000393277
0.000395659
0.000384848
0.000386986
0.000401478
0.000416227
0.000422871
0.000422845
0.000422747
0.000422121
0.000420795
0.000419882
0.000417909
0.000409116
0.000406297
0.000405113
0.000406037
0.000409289
0.000413478
0.00041846
0.000424451
0.000431947
0.000425004
0.000413353
0.000406632
0.000401222
0.000387706
0.000406077
0.000413378
0.000418952
0.0003902
0.00043937
0.000406277
0.000414446
0.000418229
0.000415273
0.000447922
0.000481108
0.000484326
0.000273054
0.00026711
0.000265156
0.000283152
0.000315785
0.000322345
0.000330835
0.000346716
0.000351168
0.000361261
0.00036303
0.000356125
0.000347869
0.000339216
0.000295439
0.000299896
0.000306163
0.000313165
0.000317986
0.000325339
0.0003347
0.000349361
0.000364639
0.0003838
0.000397935
0.000406374
0.000413959
0.000421071
0.000427862
0.000434579
0.000441052
0.000447299
0.000456843
0.000470002
0.000502165
0.00050751
0.000501703
0.000498495
0.000508223
0.000496642
0.000475416
0.000456039
0.000461217
0.000463836
0.000461061
0.000457974
0.000455883
0.000475549
0.000495983
0.000511072
0.000517756
0.000509
0.000509854
0.000524717
0.000542103
0.000547108
0.00054863
0.000549475
0.000548716
0.000546121
0.000544541
0.000542269
0.000534518
0.000531436
0.000531059
0.00053373
0.000537934
0.00054315
0.000549616
0.000557539
0.000561388
0.000546786
0.000535389
0.000528605
0.000515939
0.000508139
0.000520526
0.000529904
0.0005426
0.000517634
0.00055289
0.000516818
0.000508239
0.00051857
0.000549073
0.000553885
0.000539642
0.00052227
0.000291874
0.000302683
0.000323801
0.000366642
0.000405816
0.00042162
0.000435753
0.000454589
0.000465429
0.000481887
0.000489632
0.000484937
0.000477035
0.000472475
0.000430899
0.000437346
0.000443805
0.000449778
0.000458326
0.000470706
0.000484412
0.000499207
0.000513012
0.000529731
0.000543571
0.000550764
0.000556813
0.00056249
0.000567735
0.000572788
0.000577657
0.000582361
0.000591361
0.000602722
0.000630954
0.000642169
0.000630326
0.000630714
0.000638595
0.000633688
0.000615719
0.000600779
0.000603828
0.000602843
0.00059974
0.000597385
0.000595554
0.000605068
0.000628487
0.000642328
0.000653958
0.00064485
0.000641684
0.000658057
0.000673855
0.000678447
0.000681869
0.000683669
0.000683473
0.000681953
0.000682546
0.00068205
0.000677552
0.000676292
0.000678747
0.000683094
0.000688541
0.000694382
0.000701285
0.00070905
0.000700988
0.000679312
0.000669536
0.000667902
0.000655327
0.000660041
0.000666391
0.000683869
0.000702512
0.000688689
0.000673184
0.000656056
0.000651286
0.000643781
0.000677757
0.000609708
0.000599393
0.000520233
0.000295747
0.00033848
0.000376819
0.000449092
0.000502231
0.000532853
0.000551075
0.000571816
0.00059124
0.000617144
0.000634122
0.000634613
0.000631243
0.00063045
0.000603502
0.000611747
0.000616163
0.000622064
0.000629531
0.000640927
0.000651571
0.000662435
0.000672494
0.000685865
0.000698591
0.000706297
0.000712367
0.000717167
0.000721794
0.00072625
0.000730545
0.000734153
0.00074225
0.000750482
0.000774879
0.000790244
0.000771868
0.000776177
0.000783078
0.000786539
0.000771668
0.000760633
0.000761782
0.000760112
0.000757646
0.000755827
0.000754115
0.000755287
0.000779015
0.000792245
0.000805763
0.000796438
0.000794337
0.000810258
0.000821053
0.000825511
0.000828687
0.000829828
0.000830358
0.000830852
0.000835686
0.00083923
0.000839333
0.000843237
0.0008491
0.000855191
0.000860278
0.000864701
0.000868511
0.000871848
0.000849429
0.000826228
0.000818246
0.000820186
0.000813632
0.00082996
0.00083927
0.000867246
0.000895296
0.000874296
0.000799495
0.000805145
0.000815535
0.000777264
0.000797361
0.000709591
0.000710107
0.000576372
0.000275058
0.000358434
0.000415566
0.000504212
0.000583708
0.000638161
0.000669563
0.000689722
0.00071603
0.000746941
0.000772877
0.000786173
0.000794542
0.000798788
0.000791285
0.000797309
0.000800862
0.000805539
0.000810543
0.000817349
0.0008242
0.000831644
0.000838837
0.000850187
0.000861515
0.000871187
0.000879869
0.000885403
0.000890657
0.000895105
0.000898919
0.000901457
0.000907335
0.000912365
0.000931988
0.000949359
0.00093512
0.000942409
0.000950924
0.000961183
0.000949848
0.000942772
0.000944271
0.000944601
0.000943366
0.000942465
0.000941268
0.000938728
0.000956773
0.000967964
0.000979893
0.000978814
0.000979437
0.000991344
0.000997353
0.0010005
0.00100125
0.00100116
0.00100154
0.00100258
0.00100908
0.0010167
0.00102297
0.00103136
0.00103755
0.00104175
0.00104157
0.00104214
0.00104247
0.00103811
0.0010082
0.000987785
0.000981958
0.000989025
0.000989645
0.00100733
0.00102843
0.00106311
0.00108667
0.00105123
0.000964751
0.000960468
0.000955563
0.000914582
0.000936924
0.000919427
0.000882264
0.000800641
0.000224167
0.000339359
0.000430725
0.00053056
0.000629054
0.000711199
0.000770796
0.000798919
0.000835593
0.000865916
0.000894327
0.000918552
0.000938479
0.000948547
0.00096277
0.000971454
0.000977954
0.000984048
0.000988926
0.00099292
0.000998497
0.00100425
0.00100982
0.00101934
0.00102857
0.00103753
0.00104781
0.00105519
0.00106155
0.00106597
0.00106926
0.00107087
0.00107292
0.00107482
0.00109265
0.00111364
0.00110935
0.00112031
0.00113171
0.00114525
0.00114207
0.00114105
0.00114433
0.00114673
0.00114856
0.00115054
0.00115115
0.00114814
0.00115678
0.00116924
0.00118512
0.00119803
0.0011996
0.00120391
0.00120562
0.0012059
0.00120417
0.00120242
0.00120152
0.001202
0.00120922
0.00122128
0.0012333
0.00123847
0.00123793
0.00123385
0.00122736
0.00122486
0.00122423
0.00120643
0.0011748
0.00115744
0.00115681
0.00117324
0.00117939
0.00119811
0.00123428
0.00126259
0.00126686
0.00123834
0.00118598
0.0011643
0.00114134
0.00112554
0.00113959
0.00115381
0.00115118
0.00114449
0.000160325
0.000275808
0.000396264
0.000527204
0.000646106
0.000747577
0.000830827
0.000885396
0.000936242
0.000971776
0.00100539
0.0010359
0.00105775
0.00107456
0.00111232
0.00112961
0.00114013
0.00114989
0.00115791
0.00116476
0.00117226
0.00117873
0.00118487
0.00119455
0.00120367
0.00121233
0.00122287
0.00123211
0.00123908
0.0012439
0.00124655
0.00124645
0.001246
0.00124759
0.00126782
0.00128981
0.0012936
0.00130371
0.00131561
0.00132783
0.00133252
0.00133721
0.00134202
0.00134672
0.00135197
0.00135577
0.00135707
0.0013551
0.00135908
0.00138107
0.00140399
0.0014261
0.00142814
0.00142579
0.0014253
0.00142441
0.00142289
0.00142167
0.00142207
0.00142607
0.00143717
0.00145357
0.001463
0.00145616
0.00144714
0.00144036
0.00143621
0.00143813
0.00143439
0.00140471
0.00137117
0.00135667
0.00136533
0.00138294
0.00139695
0.00142909
0.00146499
0.00147544
0.00147332
0.00146155
0.00144164
0.00143149
0.00140706
0.0013792
0.00139285
0.0014001
0.00132337
0.00137992
0.000107461
0.000193241
0.000313145
0.000481139
0.000634469
0.000764124
0.000857888
0.000935586
0.000992588
0.00104214
0.00109096
0.00113474
0.00116328
0.00119317
0.00125038
0.00127941
0.00129894
0.00131592
0.00132777
0.00133923
0.00135055
0.0013597
0.00136787
0.0013786
0.00138986
0.0014004
0.00141133
0.0014217
0.00142814
0.00143348
0.00143677
0.00143637
0.00143813
0.00144213
0.00146251
0.00148575
0.00150033
0.00150302
0.00151285
0.00152233
0.00152943
0.00153885
0.00154516
0.00155002
0.0015549
0.00155634
0.00155643
0.00155571
0.00155725
0.00157844
0.00160134
0.00162216
0.00162567
0.00162166
0.00162344
0.00162587
0.00162858
0.00163153
0.00163775
0.0016498
0.00166512
0.00167706
0.00167616
0.00166588
0.0016605
0.00166316
0.00166926
0.00167457
0.00166197
0.0016338
0.0016055
0.00159892
0.00161704
0.00162172
0.00163989
0.00166844
0.00168319
0.0016824
0.00168993
0.00169287
0.00168619
0.00167755
0.001639
0.00158615
0.00158652
0.00165487
0.00152036
0.00162019
6.85079e-05
0.000120335
0.000212719
0.0003828
0.000561011
0.000729511
0.000848563
0.00094502
0.00101254
0.00107206
0.00113295
0.00119077
0.00123977
0.00128909
0.00135629
0.00140192
0.00143607
0.00146578
0.00148447
0.00150286
0.00152113
0.00153768
0.00155196
0.00156707
0.00158303
0.00159768
0.00161021
0.00162182
0.00162802
0.00163481
0.00164205
0.00164568
0.00165144
0.00165926
0.00168174
0.00170642
0.00172872
0.00172788
0.00173496
0.00174356
0.00175251
0.00176383
0.0017711
0.00177381
0.00177481
0.00177395
0.00177194
0.00176866
0.00176413
0.00176979
0.00178626
0.00180429
0.00181516
0.00181422
0.00181772
0.00182245
0.00182635
0.00183375
0.00184471
0.00185737
0.00186793
0.00186797
0.00186604
0.00186463
0.0018685
0.00187644
0.00188206
0.00187855
0.0018621
0.0018443
0.0018304
0.00183221
0.00184733
0.0018452
0.00185799
0.00187304
0.00188695
0.00189963
0.00192763
0.00194088
0.00192594
0.00190052
0.00184884
0.0018017
0.00181004
0.00188405
0.00186095
0.00190115
4.00864e-05
6.93551e-05
0.000124741
0.000252559
0.000418665
0.000599156
0.00075985
0.000889448
0.000988986
0.00106795
0.00113872
0.0012144
0.00128567
0.00134944
0.00141927
0.00147312
0.00151355
0.00155086
0.00158144
0.00161083
0.00164149
0.00167221
0.00170078
0.00172856
0.001756
0.00178169
0.00180303
0.00182229
0.00183601
0.00184971
0.00185951
0.00186703
0.00187579
0.00188599
0.00190906
0.00193162
0.0019535
0.00195858
0.0019625
0.00197066
0.00198292
0.00199443
0.0020037
0.00201025
0.00201295
0.00201351
0.00201068
0.00200451
0.00199411
0.00198648
0.00199342
0.00200853
0.00202445
0.00203204
0.00203718
0.00204457
0.00205008
0.00206454
0.0020758
0.00208045
0.00208089
0.00208178
0.00208969
0.00209854
0.00210754
0.00211378
0.0021115
0.00210025
0.00208659
0.00207723
0.00207053
0.00206117
0.00205095
0.00205095
0.00206719
0.00209164
0.00213026
0.0021717
0.00221169
0.00221889
0.00218496
0.00212979
0.00205965
0.00201704
0.00204907
0.00205606
0.00210718
0.00206674
2.38261e-05
3.88411e-05
6.90827e-05
0.000136566
0.000250803
0.000402033
0.000576219
0.000732476
0.000873554
0.000993331
0.00109437
0.00120046
0.00129615
0.00137012
0.00143936
0.00149226
0.00153475
0.00157775
0.00161907
0.00165891
0.00170009
0.00174156
0.00178221
0.00182144
0.00185944
0.00189737
0.00193521
0.00197121
0.00200002
0.00202344
0.00203553
0.00204469
0.00205487
0.0020665
0.00208686
0.00210681
0.00212703
0.00214191
0.00214959
0.00215937
0.00217532
0.0021905
0.00220477
0.00221904
0.00222905
0.00223576
0.00224026
0.00224171
0.00223378
0.00222392
0.00222574
0.00223449
0.00224816
0.00226301
0.00227358
0.00228703
0.00229884
0.00231148
0.0023143
0.0023137
0.00231427
0.00232519
0.00233569
0.00234777
0.00235466
0.00235528
0.00235208
0.00234561
0.00233988
0.00233237
0.00231884
0.00229195
0.00226958
0.00227701
0.00229942
0.00233616
0.00238153
0.00242058
0.00244271
0.00245015
0.00241327
0.00235353
0.00228447
0.00224562
0.00224762
0.00222845
0.00225718
0.00219942
1.8668e-05
2.6532e-05
4.41587e-05
6.81149e-05
0.000118017
0.000205943
0.000345857
0.00049333
0.000652422
0.00080079
0.000949595
0.00109192
0.00122035
0.00130815
0.00137651
0.00143439
0.00149406
0.0015525
0.0016081
0.00166275
0.00171401
0.0017614
0.00180817
0.00185609
0.00190236
0.00194907
0.00200036
0.00204872
0.00208872
0.00211635
0.00213338
0.00214803
0.0021652
0.00218383
0.00220717
0.00222992
0.00225514
0.0022794
0.00229708
0.00231285
0.00233243
0.00234958
0.0023638
0.00237844
0.00239193
0.00240526
0.0024169
0.00242633
0.00243021
0.00243117
0.00243771
0.0024449
0.00245484
0.00246892
0.00248392
0.00249444
0.00249964
0.0024963
0.00249149
0.00249182
0.00249986
0.00251465
0.00252207
0.00252647
0.00253052
0.00253427
0.00254261
0.00254873
0.00254886
0.00253975
0.00251822
0.00248779
0.00247678
0.00249964
0.00252661
0.00255578
0.00257612
0.00258573
0.00259282
0.00259557
0.00256689
0.00254131
0.00250835
0.00246167
0.00240519
0.00242764
0.00245266
0.00242245
1.76002e-05
2.4231e-05
3.25755e-05
3.84445e-05
5.27433e-05
8.53385e-05
0.000154088
0.00024642
0.000377637
0.000506115
0.000659034
0.000818114
0.000984303
0.00110165
0.00118627
0.00127322
0.00137274
0.00146163
0.00153195
0.00159717
0.00165731
0.00171277
0.00177009
0.00183468
0.00189729
0.00195422
0.00201147
0.00206219
0.00210576
0.00213913
0.002168
0.00219572
0.00222585
0.00225513
0.00228197
0.00230749
0.00233456
0.00236031
0.00238067
0.00239958
0.00242046
0.00243938
0.00245558
0.00247457
0.00249737
0.00252084
0.00254082
0.00255846
0.00257222
0.00258231
0.00259507
0.00260693
0.00261828
0.00262656
0.00263653
0.00263554
0.00262838
0.00262461
0.00262978
0.0026401
0.0026601
0.00268455
0.00269499
0.00270274
0.00270656
0.00271075
0.00271759
0.00272284
0.00271538
0.00270095
0.00268173
0.00266825
0.00266499
0.00267738
0.00269483
0.00270929
0.00271289
0.00271523
0.00269897
0.00268964
0.00272385
0.00270206
0.00264209
0.00260573
0.00262232
0.00271262
0.00274494
0.00272934
1.73047e-05
2.26797e-05
2.35304e-05
2.20805e-05
2.85273e-05
3.94058e-05
5.65353e-05
8.6579e-05
0.000151714
0.000213626
0.000308269
0.000425626
0.000576516
0.000721291
0.00083792
0.000966183
0.00110066
0.00122526
0.00131628
0.00140328
0.00148316
0.00155387
0.0016228
0.00169448
0.00176351
0.00182273
0.00189109
0.00195372
0.00201059
0.00206346
0.00211266
0.00215893
0.00220218
0.00223845
0.00226361
0.0022889
0.00231519
0.00233952
0.0023603
0.00238083
0.00240337
0.00242706
0.00245086
0.00247571
0.00250507
0.00253789
0.00257064
0.00259992
0.00261985
0.00263348
0.00264821
0.00266381
0.00267858
0.002679
0.00267754
0.00267292
0.00266777
0.00267997
0.00270129
0.00271963
0.00273983
0.00276019
0.00276723
0.00277814
0.00278433
0.0027884
0.00279
0.002789
0.00278451
0.00278846
0.00279905
0.00280853
0.00280665
0.00280339
0.00281193
0.00281468
0.00279238
0.00277072
0.00274852
0.00274084
0.00276101
0.0027501
0.00273208
0.00274145
0.00278741
0.00283566
0.00284838
0.00284781
1.38194e-05
1.6514e-05
1.4076e-05
1.37828e-05
1.8695e-05
2.34803e-05
2.96073e-05
2.94512e-05
4.13562e-05
5.07258e-05
8.23181e-05
0.000132117
0.000208007
0.0003215
0.00042329
0.000536806
0.00065078
0.000773302
0.000881818
0.00100474
0.00111429
0.00120128
0.0012729
0.00134512
0.00141685
0.00148786
0.00158714
0.00167663
0.00176078
0.00183579
0.00190405
0.00196741
0.00202604
0.00207252
0.00210358
0.0021341
0.00216222
0.00218886
0.00221235
0.00223592
0.00226088
0.00228772
0.00231882
0.00234825
0.00237642
0.00240642
0.0024377
0.00247171
0.00249971
0.0025189
0.00253755
0.00255631
0.00257438
0.00258099
0.0025804
0.00257826
0.00258046
0.00259064
0.00260748
0.00261815
0.00262675
0.00263841
0.00265072
0.00266754
0.00267705
0.00268294
0.00268941
0.00269641
0.00270639
0.00272425
0.00275466
0.00278904
0.00280981
0.00280117
0.00278077
0.00275612
0.00273175
0.00272528
0.00272091
0.00268255
0.00266841
0.00268932
0.00271905
0.00275095
0.00276926
0.00277776
0.00278837
0.0027969
1.04145e-05
1.15154e-05
1.31948e-05
1.60786e-05
1.91665e-05
2.9029e-05
3.14133e-05
2.27078e-05
1.45249e-05
1.06603e-05
1.4865e-05
3.53896e-05
5.6319e-05
9.33274e-05
0.00013318
0.000180333
0.000231351
0.000303544
0.000382093
0.000479259
0.000571473
0.000645454
0.00070267
0.00078035
0.000865486
0.000959144
0.00107018
0.00117358
0.00127168
0.00135168
0.00142671
0.00149813
0.0015677
0.00163059
0.00168673
0.00173871
0.00178178
0.00182636
0.00186873
0.00190749
0.00194049
0.00197243
0.00200629
0.00204065
0.00207645
0.00211244
0.00214341
0.00218301
0.00221704
0.0022383
0.0022598
0.00227899
0.00229614
0.00230879
0.00231167
0.00230435
0.00230548
0.00231358
0.00234173
0.00236859
0.0023813
0.00238815
0.00240125
0.00242258
0.0024272
0.00242744
0.00243174
0.00243811
0.00244677
0.00246026
0.00248528
0.00251814
0.00254983
0.00255311
0.00255152
0.0025513
0.00254187
0.00250088
0.00246665
0.00244891
0.00245117
0.00244158
0.00243299
0.00244901
0.00246317
0.00247088
0.00247839
0.00248324
2.24037e-05
2.28172e-05
2.66813e-05
2.59584e-05
3.04216e-05
4.13013e-05
3.17811e-05
2.23858e-05
1.42718e-05
1.71968e-05
2.35017e-05
3.37517e-05
3.582e-05
3.67909e-05
4.26215e-05
4.7623e-05
5.76743e-05
7.87097e-05
0.000102355
0.000130594
0.000161326
0.000187086
0.000210322
0.00024851
0.000295819
0.0003596
0.00042833
0.000504071
0.00057992
0.000647451
0.000713288
0.000777737
0.000845672
0.000913119
0.00098228
0.00104773
0.0011087
0.00117222
0.00123527
0.00128978
0.00132815
0.00136176
0.0013962
0.0014313
0.00146856
0.0015138
0.00155353
0.0015943
0.00162854
0.00165955
0.00169573
0.00171617
0.00173332
0.00174981
0.00176293
0.00176464
0.00176161
0.00175842
0.00177507
0.00179978
0.00182544
0.00184568
0.00185751
0.00187037
0.00186934
0.00187381
0.00189794
0.00192856
0.00194835
0.00196175
0.00197255
0.00196498
0.00196177
0.0019658
0.00199131
0.00200226
0.00198597
0.00195905
0.00194697
0.00193906
0.00191079
0.00187196
0.00184892
0.00184754
0.00184711
0.00185047
0.00186252
0.00188252
3.79521e-05
3.82478e-05
4.06348e-05
3.60807e-05
4.23231e-05
3.20696e-05
2.04823e-05
2.36446e-05
2.79414e-05
3.38662e-05
4.21968e-05
3.63447e-05
3.22758e-05
2.9361e-05
3.15367e-05
3.4173e-05
3.79419e-05
3.66514e-05
3.34152e-05
3.4968e-05
3.87075e-05
4.06242e-05
4.80873e-05
5.14478e-05
5.6898e-05
7.00179e-05
8.38162e-05
0.000102834
0.000123633
0.000144481
0.000164429
0.000184208
0.000211063
0.000237528
0.000264644
0.000290198
0.000318984
0.000353966
0.000395716
0.000438781
0.000473683
0.000502398
0.000530691
0.000557984
0.000587172
0.000627752
0.0006659
0.000704307
0.000745152
0.000787394
0.000825602
0.000830327
0.000835214
0.000843557
0.000851828
0.000857152
0.000859387
0.000858557
0.000855698
0.00085324
0.000868871
0.000901955
0.000935239
0.000951745
0.0009605
0.000962983
0.000974123
0.000982356
0.000966996
0.000938293
0.000909622
0.000886724
0.000891594
0.000910437
0.000953419
0.000998188
0.00102378
0.00104459
0.00106109
0.0010582
0.00103848
0.00101946
0.00100977
0.00100971
0.00101415
0.0010257
0.00103669
0.00104334
4.51927e-05
4.64764e-05
4.51375e-05
3.78171e-05
3.241e-05
1.53112e-05
1.75316e-05
3.02156e-05
3.18434e-05
2.84286e-05
3.25829e-05
2.35607e-05
2.47927e-05
2.37534e-05
2.63523e-05
2.94649e-05
3.01298e-05
2.3703e-05
2.02137e-05
2.72795e-05
3.55199e-05
3.88033e-05
4.00037e-05
3.77987e-05
3.65212e-05
3.3884e-05
3.07252e-05
2.79907e-05
2.56197e-05
2.39754e-05
2.31632e-05
2.22892e-05
2.33894e-05
2.31603e-05
2.28865e-05
2.3565e-05
2.64287e-05
3.25076e-05
4.3216e-05
5.61937e-05
6.81247e-05
7.88359e-05
9.00312e-05
9.96546e-05
0.000109364
0.000122299
0.000133145
0.000142637
0.000153101
0.00016297
0.000171308
0.000168251
0.000169301
0.000171429
0.000173373
0.000174647