/*--------------------------------*- C++ -*----------------------------------*\
  =========                 |
  \\      /  F ield         | OpenFOAM: The Open Source CFD Toolbox
   \\    /   O peration     | Website:  https://openfoam.org
    \\  /    A nd           | Version:  8
     \\/     M anipulation  |
\*---------------------------------------------------------------------------*/
FoamFile
{
    version     2.0;
    format      ascii;
    class       volScalarField;
    location    "817";
    object      p;
}
// * * * * * * * * * * * * * * * * * * * * * * * * * * * * * * * * * * * * * //

dimensions      [0 2 -2 0 0 0 0];

internalField   nonuniform List<scalar> 
20540
(
36.8657
39.2159
36.8657
39.2169
36.8657
39.2149
36.8656
39.2121
36.8654
39.2087
36.8649
39.2045
36.8641
39.1989
36.8629
39.1914
36.8611
39.1808
36.8588
39.1661
36.8559
39.1476
36.8524
39.1262
36.848
39.1012
36.8429
39.0709
36.8371
39.0332
36.8307
38.9867
36.8237
38.9303
36.8156
38.863
36.8059
38.7826
36.7943
38.6863
36.7806
38.5722
36.7644
38.4381
36.7456
38.2817
36.7238
38.1009
36.6989
37.8944
36.6709
37.6624
36.6401
37.4073
36.607
37.1354
36.5733
36.8591
36.5414
36.5996
36.5186
36.4157
36.507
36.3224
36.506
36.3149
36.5156
36.3935
36.536
36.5599
36.565
36.7963
36.5963
37.0521
36.6273
37.3071
36.6567
37.549
36.6837
37.7714
36.7079
37.9711
36.7292
38.1476
36.7479
38.3016
36.764
38.4347
36.7779
38.5489
36.7896
38.6462
36.7995
38.7287
36.8078
38.7982
36.8149
38.8565
36.8212
38.9052
36.827
38.9459
36.8323
38.98
36.837
39.0081
36.841
39.0309
36.8444
39.0493
36.8472
39.0639
36.8493
39.0756
36.8509
39.085
36.852
39.0925
36.8529
39.0987
36.8534
39.1038
36.8537
39.1081
36.8539
39.1119
36.854
39.1148
36.854
39.115
32.5031
12.12
0.48008
-4.69747
-8.12465
-11.5581
-14.9417
-17.8883
-20.6611
-23.6099
-26.6859
-29.6901
-32.6622
-35.6769
-37.9417
-39.7323
-41.9424
-44.3372
-46.7881
-49.1751
-51.4071
-53.6305
-55.9967
-58.2987
-60.3215
-62.1452
-63.8662
-65.6085
-67.316
-68.8429
-70.1959
-71.3538
-72.1775
-72.9603
-74.6116
-76.6074
-78.2436
-79.8706
-81.6767
-83.0176
-83.2572
-83.0541
-82.9571
-83.015
-83.2034
-83.5982
-83.2113
-83.9422
-86.6704
-89.6785
-91.9774
-92.7381
-93.1381
-94.0007
-95.1725
-96.0365
-97.1712
-98.8749
-100.616
-102.454
-104.433
-106.737
-109.354
-111.623
-113.352
-114.988
-116.575
-118.098
-119.524
-120.654
-121.612
-123.174
-125.726
-128.322
-130.821
-133.709
-136.745
-139.967
-141.118
-142.301
-144.181
-146.077
-148.415
-149.963
-152.511
-154.708
-155.121
-164.261
32.5946
12.1284
0.482
-4.69729
-8.12494
-11.5582
-14.9422
-17.8891
-20.6615
-23.6101
-26.686
-29.6902
-32.6624
-35.6773
-37.942
-39.7322
-41.9423
-44.337
-46.7879
-49.175
-51.4069
-53.6302
-55.997
-58.2996
-60.3227
-62.1467
-63.8674
-65.6093
-67.3167
-68.8437
-70.1967
-71.3547
-72.1775
-72.9587
-74.6104
-76.6073
-78.2434
-79.8708
-81.6788
-83.0213
-83.2597
-83.0549
-82.9572
-83.0154
-83.2037
-83.5983
-83.2059
-83.9339
-86.6648
-89.6764
-91.981
-92.7397
-93.1365
-93.9985
-95.1729
-96.0373
-97.1703
-98.8737
-100.614
-102.452
-104.43
-106.733
-109.352
-111.623
-113.354
-114.991
-116.58
-118.104
-119.531
-120.651
-121.601
-123.162
-125.714
-128.317
-130.827
-133.727
-136.776
-139.999
-141.094
-142.307
-144.215
-146.084
-148.467
-150.009
-152.535
-154.556
-154.952
-164.285
32.6333
12.1339
0.483252
-4.69731
-8.12526
-11.5584
-14.9428
-17.8897
-20.6619
-23.6104
-26.6863
-29.6904
-32.6625
-35.6778
-37.9423
-39.7321
-41.9421
-44.3369
-46.7878
-49.1749
-51.4066
-53.63
-55.9973
-58.3005
-60.3241
-62.1483
-63.8686
-65.6102
-67.3176
-68.8447
-70.1976
-71.3558
-72.1777
-72.9569
-74.6088
-76.6072
-78.2431
-79.8709
-81.6813
-83.0257
-83.2634
-83.057
-82.958
-83.0156
-83.2037
-83.5982
-83.2
-83.9221
-86.6566
-89.6739
-91.985
-92.7413
-93.1349
-93.9964
-95.1736
-96.0378
-97.1686
-98.8719
-100.612
-102.449
-104.427
-106.729
-109.35
-111.623
-113.356
-114.994
-116.585
-118.111
-119.537
-120.649
-121.59
-123.15
-125.703
-128.308
-130.832
-133.747
-136.816
-140.037
-141.072
-142.298
-144.249
-146.087
-148.517
-150.061
-152.579
-154.452
-154.698
-164.062
32.6334
12.1354
0.483575
-4.69764
-8.12574
-11.5587
-14.9434
-17.8903
-20.6624
-23.6107
-26.6865
-29.6906
-32.6628
-35.6784
-37.9426
-39.7319
-41.9419
-44.3367
-46.7877
-49.1748
-51.4065
-53.6299
-55.9977
-58.3014
-60.3253
-62.1495
-63.8696
-65.6111
-67.3185
-68.8456
-70.1987
-71.3569
-72.178
-72.9555
-74.6076
-76.6069
-78.2427
-79.871
-81.6833
-83.0296
-83.2672
-83.0598
-82.9594
-83.0157
-83.2033
-83.5983
-83.1951
-83.9104
-86.6468
-89.6716
-91.9887
-92.7428
-93.1338
-93.9951
-95.1741
-96.037
-97.1654
-98.8692
-100.609
-102.446
-104.423
-106.726
-109.348
-111.624
-113.358
-114.997
-116.589
-118.116
-119.544
-120.649
-121.58
-123.141
-125.693
-128.295
-130.832
-133.768
-136.855
-140.078
-141.055
-142.272
-144.272
-146.084
-148.537
-150.1
-152.616
-154.408
-154.539
-163.689
32.6305
12.1368
0.483949
-4.69802
-8.12637
-11.559
-14.9439
-17.891
-20.6628
-23.611
-26.6868
-29.6908
-32.663
-35.6791
-37.9429
-39.7317
-41.9417
-44.3365
-46.7875
-49.1747
-51.4064
-53.6298
-55.9982
-58.3026
-60.3264
-62.1505
-63.8706
-65.612
-67.3195
-68.8467
-70.1997
-71.358
-72.1785
-72.9545
-74.6066
-76.6066
-78.2422
-79.8708
-81.685
-83.0332
-83.2708
-83.0624
-82.9608
-83.0164
-83.2033
-83.5988
-83.1907
-83.899
-86.6368
-89.6692
-91.9915
-92.7446
-93.1332
-93.994
-95.1731
-96.0344
-97.1613
-98.8658
-100.605
-102.442
-104.42
-106.724
-109.348
-111.624
-113.36
-115
-116.593
-118.121
-119.549
-120.65
-121.573
-123.135
-125.686
-128.28
-130.83
-133.788
-136.892
-140.118
-141.048
-142.243
-144.281
-146.079
-148.528
-150.126
-152.636
-154.409
-154.471
-163.275
32.63
12.1394
0.484615
-4.69831
-8.12722
-11.5596
-14.9445
-17.8915
-20.6631
-23.6113
-26.6871
-29.691
-32.6635
-35.68
-37.9433
-39.7315
-41.9416
-44.3364
-46.7874
-49.1745
-51.4062
-53.6298
-55.9987
-58.3039
-60.3276
-62.1515
-63.8715
-65.6129
-67.3204
-68.8476
-70.2008
-71.3592
-72.1792
-72.9534
-74.6053
-76.6062
-78.2417
-79.8704
-81.6865
-83.0369
-83.2744
-83.065
-82.9625
-83.0174
-83.2034
-83.5996
-83.1869
-83.8883
-86.6273
-89.6657
-91.9932
-92.7467
-93.1327
-93.9919
-95.1697
-96.0303
-97.1576
-98.8621
-100.601
-102.438
-104.416
-106.723
-109.347
-111.624
-113.362
-115.002
-116.597
-118.126
-119.554
-120.652
-121.569
-123.134
-125.683
-128.265
-130.824
-133.801
-136.922
-140.151
-141.053
-142.214
-144.279
-146.07
-148.496
-150.144
-152.637
-154.445
-154.468
-162.862
32.629
12.1435
0.48553
-4.69838
-8.12822
-11.5603
-14.945
-17.8917
-20.6631
-23.6116
-26.6875
-29.6912
-32.6641
-35.6815
-37.9441
-39.7314
-41.9415
-44.3363
-46.7873
-49.1744
-51.4062
-53.6298
-55.9992
-58.3051
-60.3289
-62.1526
-63.8727
-65.6141
-67.3214
-68.8485
-70.2018
-71.3602
-72.1801
-72.9519
-74.6031
-76.6058
-78.2411
-79.8698
-81.6884
-83.0415
-83.279
-83.0684
-82.9647
-83.0191
-83.2037
-83.6007
-83.1846
-83.8792
-86.6177
-89.6594
-91.9931
-92.7488
-93.1315
-93.9879
-95.1642
-96.0261
-97.1552
-98.8583
-100.597
-102.433
-104.413
-106.722
-109.346
-111.623
-113.362
-115.004
-116.599
-118.128
-119.556
-120.653
-121.571
-123.142
-125.682
-128.254
-130.814
-133.805
-136.936
-140.171
-141.071
-142.184
-144.269
-146.051
-148.438
-150.171
-152.631
-154.488
-154.514
-162.475
32.626
12.1491
0.486812
-4.69807
-8.12915
-11.5611
-14.9454
-17.8917
-20.663
-23.6118
-26.6878
-29.6913
-32.6647
-35.6835
-37.9454
-39.7314
-41.9414
-44.3362
-46.7874
-49.1746
-51.4065
-53.6299
-55.9993
-58.3061
-60.3301
-62.1538
-63.8741
-65.6154
-67.3225
-68.8495
-70.2028
-71.3613
-72.1813
-72.95
-74.6
-76.605
-78.2403
-79.869
-81.6901
-83.0469
-83.2852
-83.0733
-82.9682
-83.0222
-83.205
-83.6031
-83.1848
-83.8726
-86.6073
-89.6494
-91.9903
-92.7503
-93.1297
-93.9824
-95.1576
-96.0229
-97.1541
-98.8548
-100.593
-102.429
-104.41
-106.721
-109.345
-111.62
-113.36
-115.003
-116.599
-118.127
-119.555
-120.654
-121.58
-123.158
-125.686
-128.244
-130.808
-133.802
-136.926
-140.162
-141.091
-142.15
-144.25
-146.024
-148.364
-150.23
-152.63
-154.506
-154.597
-162.15
32.6211
12.1565
0.488976
-4.697
-8.12946
-11.5614
-14.9455
-17.8916
-20.6628
-23.6119
-26.6881
-29.6916
-32.6653
-35.6858
-37.9472
-39.7314
-41.9413
-44.336
-46.7876
-49.1753
-51.407
-53.6298
-55.9989
-58.3063
-60.3311
-62.1551
-63.8756
-65.6169
-67.3238
-68.8507
-70.204
-71.3626
-72.1831
-72.9484
-74.5967
-76.6039
-78.2395
-79.8676
-81.6907
-83.0517
-83.2924
-83.0802
-82.9732
-83.027
-83.2078
-83.607
-83.1889
-83.8705
-86.5969
-89.6355
-91.9825
-92.7496
-93.1274
-93.9765
-95.151
-96.0211
-97.1543
-98.8521
-100.589
-102.425
-104.408
-106.72
-109.343
-111.616
-113.356
-115
-116.595
-118.121
-119.548
-120.654
-121.596
-123.187
-125.697
-128.241
-130.813
-133.795
-136.888
-140.112
-141.104
-142.117
-144.218
-146.001
-148.295
-150.304
-152.614
-154.48
-154.688
-161.898
32.6143
12.1665
0.493056
-4.69437
-8.1284
-11.5612
-14.945
-17.8913
-20.6626
-23.6118
-26.6886
-29.692
-32.6658
-35.6883
-37.9494
-39.7318
-41.9412
-44.3357
-46.7878
-49.1758
-51.4071
-53.629
-55.9975
-58.3056
-60.3317
-62.1564
-63.8773
-65.6185
-67.3252
-68.852
-70.2052
-71.364
-72.1855
-72.948
-74.5939
-76.6026
-78.2387
-79.8657
-81.6891
-83.0544
-83.2996
-83.0881
-82.9794
-83.0335
-83.2125
-83.6125
-83.1987
-83.8751
-86.5883
-89.6185
-91.9689
-92.7456
-93.1251
-93.9712
-95.1447
-96.0205
-97.1558
-98.8504
-100.587
-102.423
-104.406
-106.72
-109.34
-111.61
-113.349
-114.992
-116.586
-118.111
-119.537
-120.652
-121.621
-123.226
-125.718
-128.25
-130.829
-133.785
-136.827
-140.017
-141.103
-142.095
-144.179
-146.002
-148.241
-150.331
-152.535
-154.435
-154.79
-161.651
32.6041
12.1809
0.500626
-4.689
-8.1254
-11.56
-14.9437
-17.8904
-20.6621
-23.6114
-26.6888
-29.6926
-32.6663
-35.691
-37.9525
-39.7326
-41.9412
-44.3355
-46.7877
-49.1755
-51.4063
-53.6273
-55.9952
-58.3039
-60.3317
-62.1576
-63.879
-65.6202
-67.3266
-68.8532
-70.2063
-71.3651
-72.1885
-72.9494
-74.5922
-76.6011
-78.238
-79.8631
-81.6849
-83.0538
-83.3047
-83.0958
-82.9863
-83.0416
-83.2189
-83.6194
-83.2147
-83.8873
-86.5828
-89.5999
-91.9496
-92.7381
-93.1228
-93.9662
-95.1384
-96.0211
-97.1587
-98.8497
-100.585
-102.422
-104.407
-106.72
-109.336
-111.602
-113.338
-114.979
-116.572
-118.095
-119.52
-120.649
-121.654
-123.277
-125.748
-128.272
-130.849
-133.772
-136.754
-139.885
-141.082
-142.081
-144.138
-146.025
-148.19
-150.286
-152.394
-154.42
-154.937
-161.317
32.5879
12.2008
0.512874
-4.6801
-8.12039
-11.5576
-14.9414
-17.8888
-20.6609
-23.6104
-26.6886
-29.693
-32.6664
-35.6933
-37.956
-39.734
-41.9417
-44.3352
-46.7869
-49.1743
-51.4048
-53.6253
-55.9923
-58.3014
-60.3309
-62.1584
-63.8807
-65.6219
-67.3279
-68.8543
-70.2072
-71.3659
-72.1917
-72.9529
-74.5918
-76.5997
-78.2376
-79.8601
-81.6783
-83.0489
-83.3067
-83.1023
-82.9935
-83.0509
-83.2268
-83.6276
-83.2372
-83.9078
-86.5818
-89.5805
-91.9253
-92.728
-93.1206
-93.9616
-95.1323
-96.023
-97.1632
-98.85
-100.585
-102.422
-104.408
-106.72
-109.331
-111.59
-113.322
-114.961
-116.552
-118.073
-119.496
-120.646
-121.699
-123.338
-125.779
-128.297
-130.865
-133.754
-136.671
-139.717
-141.028
-142.076
-144.102
-146.036
-148.131
-150.211
-152.261
-154.451
-155.139
-160.871
32.564
12.2257
0.529341
-4.66787
-8.11323
-11.5537
-14.9382
-17.8864
-20.6588
-23.6082
-26.6875
-29.693
-32.6658
-35.6943
-37.9593
-39.7361
-41.9427
-44.3352
-46.7859
-49.173
-51.4034
-53.6235
-55.9894
-58.2983
-60.3293
-62.1586
-63.882
-65.6234
-67.329
-68.8553
-70.208
-71.3665
-72.1956
-72.9587
-74.5926
-76.5986
-78.2374
-79.8566
-81.669
-83.0393
-83.3052
-83.1072
-83.0008
-83.0613
-83.2362
-83.6371
-83.2669
-83.9377
-86.5862
-89.5607
-91.8961
-92.7151
-93.1185
-93.9578
-95.1266
-96.0264
-97.1697
-98.8515
-100.586
-102.423
-104.409
-106.719
-109.322
-111.572
-113.3
-114.937
-116.527
-118.045
-119.467
-120.648
-121.757
-123.409
-125.81
-128.318
-130.87
-133.721
-136.569
-139.508
-140.938
-142.092
-144.076
-145.997
-148.055
-150.142
-152.172
-154.487
-155.363
-160.34
32.5335
12.2535
0.548433
-4.65332
-8.10361
-11.5478
-14.9338
-17.883
-20.6557
-23.6051
-26.6852
-29.692
-32.6643
-35.6933
-37.9613
-39.7385
-41.9441
-44.3355
-46.7853
-49.1718
-51.4023
-53.622
-55.9864
-58.2946
-60.3267
-62.1578
-63.8829
-65.6246
-67.3298
-68.8559
-70.2084
-71.367
-72.2004
-72.9672
-74.5952
-76.5977
-78.2371
-79.8523
-81.6564
-83.0246
-83.2999
-83.1104
-83.0082
-83.0727
-83.247
-83.6482
-83.3042
-83.978
-86.5965
-89.5408
-91.8617
-92.6983
-93.1161
-93.9554
-95.1218
-96.0319
-97.1793
-98.8545
-100.588
-102.424
-104.411
-106.716
-109.308
-111.548
-113.272
-114.908
-116.496
-118.013
-119.436
-120.654
-121.824
-123.484
-125.839
-128.331
-130.861
-133.666
-136.435
-139.257
-140.819
-142.117
-144.049
-145.925
-147.956
-150.068
-152.051
-154.44
-155.529
-159.756
32.4997
12.2829
0.568707
-4.63748
-8.09157
-11.5394
-14.9278
-17.8788
-20.6518
-23.6013
-26.6818
-29.6897
-32.6616
-35.6898
-37.9612
-39.741
-41.9459
-44.3362
-46.785
-49.1709
-51.4014
-53.6207
-55.9831
-58.29
-60.3231
-62.156
-63.8831
-65.6252
-67.3301
-68.8562
-70.2085
-71.3673
-72.2063
-72.9787
-74.5995
-76.5963
-78.2362
-79.8469
-81.64
-83.0038
-83.2899
-83.1113
-83.0151
-83.0846
-83.2591
-83.661
-83.3497
-84.03
-86.6131
-89.5205
-91.8205
-92.6765
-93.1141
-93.955
-95.1179
-96.0405
-97.1925
-98.8594
-100.591
-102.425
-104.412
-106.71
-109.288
-111.518
-113.238
-114.875
-116.461
-117.975
-119.402
-120.663
-121.894
-123.562
-125.863
-128.331
-130.838
-133.581
-136.264
-138.974
-140.675
-142.102
-143.987
-145.844
-147.826
-149.944
-151.847
-154.25
-155.505
-159.135
32.4652
12.3162
0.589748
-4.62034
-8.07734
-11.5285
-14.9196
-17.8731
-20.6473
-23.597
-26.6775
-29.6863
-32.6578
-35.6835
-37.9584
-39.7431
-41.9476
-44.337
-46.7848
-49.1701
-51.4006
-53.6193
-55.9793
-58.2845
-60.3185
-62.1534
-63.8826
-65.6254
-67.3298
-68.856
-70.2082
-71.3676
-72.2134
-72.9932
-74.6056
-76.5944
-78.2344
-79.8401
-81.6196
-82.9764
-83.2744
-83.1093
-83.0211
-83.097
-83.2724
-83.6756
-83.4042
-84.0943
-86.6356
-89.4981
-91.7714
-92.65
-93.1134
-93.9571
-95.1152
-96.0524
-97.2098
-98.8663
-100.595
-102.428
-104.413
-106.702
-109.265
-111.485
-113.201
-114.835
-116.417
-117.927
-119.365
-120.673
-121.963
-123.637
-125.878
-128.313
-130.79
-133.458
-136.058
-138.668
-140.484
-142.004
-143.849
-145.718
-147.641
-149.741
-151.587
-153.957
-155.289
-158.457
32.4288
12.3575
0.61304
-4.60142
-8.06095
-11.5154
-14.9093
-17.8658
-20.6421
-23.5919
-26.672
-29.6819
-32.6528
-35.6741
-37.9528
-39.7444
-41.949
-44.3377
-46.7844
-49.1688
-51.3994
-53.6176
-55.9747
-58.2777
-60.3125
-62.1497
-63.8816
-65.625
-67.329
-68.8553
-70.2075
-71.3677
-72.222
-73.0112
-74.6137
-76.5917
-78.2319
-79.8324
-81.5948
-82.9419
-83.2529
-83.1044
-83.0265
-83.1103
-83.2876
-83.6929
-83.4696
-84.1721
-86.6636
-89.4726
-91.7142
-92.6195
-93.1138
-93.961
-95.1129
-96.0672
-97.2304
-98.8742
-100.599
-102.429
-104.413
-106.692
-109.239
-111.446
-113.153
-114.779
-116.353
-117.864
-119.319
-120.676
-122.024
-123.702
-125.883
-128.278
-130.71
-133.297
-135.824
-138.328
-140.217
-141.813
-143.619
-145.502
-147.385
-149.463
-151.243
-153.57
-154.949
-157.664
32.3866
12.4093
0.640579
-4.58134
-8.04317
-11.501
-14.8975
-17.8576
-20.6366
-23.5858
-26.6651
-29.6761
-32.6455
-35.6609
-37.9441
-39.7447
-41.9497
-44.3379
-46.7836
-49.167
-51.3976
-53.6151
-55.9686
-58.2688
-60.3046
-62.1448
-63.88
-65.6243
-67.3278
-68.854
-70.206
-71.3673
-72.2319
-73.0331
-74.6241
-76.5881
-78.2288
-79.8235
-81.5647
-82.8992
-83.2253
-83.0968
-83.0319
-83.1258
-83.3064
-83.7147
-83.5486
-84.2658
-86.6989
-89.4451
-91.6488
-92.5841
-93.1138
-93.9654
-95.1101
-96.0843
-97.254
-98.882
-100.601
-102.429
-104.413
-106.68
-109.204
-111.391
-113.083
-114.699
-116.269
-117.786
-119.258
-120.656
-122.061
-123.744
-125.87
-128.218
-130.595
-133.097
-135.543
-137.925
-139.851
-141.522
-143.303
-145.191
-147.039
-149.072
-150.764
-152.972
-154.375
-156.736
32.335
12.4722
0.672822
-4.56157
-8.02609
-11.4863
-14.8842
-17.8485
-20.6303
-23.5788
-26.6567
-29.668
-32.6353
-35.6438
-37.9329
-39.7442
-41.9498
-44.3375
-46.782
-49.1641
-51.3946
-53.611
-55.9601
-58.257
-60.2939
-62.1378
-63.8772
-65.6228
-67.3255
-68.8517
-70.2035
-71.3662
-72.2435
-73.0597
-74.6372
-76.584
-78.2246
-79.8124
-81.528
-82.8469
-83.191
-83.0866
-83.0374
-83.1442
-83.3299
-83.7423
-83.644
-84.3785
-86.7437
-89.4167
-91.5745
-92.5421
-93.1111
-93.9691
-95.1063
-96.1033
-97.2799
-98.8891
-100.603
-102.428
-104.412
-106.661
-109.153
-111.312
-112.988
-114.596
-116.164
-117.688
-119.171
-120.605
-122.065
-123.762
-125.834
-128.116
-130.427
-132.825
-135.167
-137.424
-139.369
-141.119
-142.898
-144.771
-146.566
-148.496
-150.116
-152.145
-153.518
-155.67
32.2716
12.547
0.710542
-4.54169
-8.01164
-11.4733
-14.8702
-17.8382
-20.6225
-23.5702
-26.6461
-29.6573
-32.622
-35.6231
-37.9202
-39.7445
-41.9504
-44.3368
-46.7795
-49.16
-51.3901
-53.6048
-55.9483
-58.2411
-60.2793
-62.1276
-63.8721
-65.6191
-67.3213
-68.848
-70.2002
-71.3649
-72.2578
-73.0923
-74.6539
-76.5799
-78.2188
-79.7973
-81.4827
-82.783
-83.1487
-83.0732
-83.0426
-83.165
-83.3585
-83.7767
-83.7571
-84.5117
-86.7979
-89.3864
-91.4902
-92.4928
-93.1049
-93.9705
-95.1002
-96.1224
-97.3071
-98.8956
-100.605
-102.426
-104.403
-106.627
-109.078
-111.205
-112.864
-114.465
-116.031
-117.557
-119.048
-120.516
-122.031
-123.747
-125.757
-127.947
-130.169
-132.442
-134.665
-136.812
-138.761
-140.574
-142.356
-144.19
-145.917
-147.718
-149.279
-151.144
-152.443
-154.414
32.1961
12.6351
0.754683
-4.51842
-7.99757
-11.4638
-14.859
-17.8287
-20.6136
-23.5592
-26.6322
-29.6437
-32.606
-35.5991
-37.9068
-39.7465
-41.9515
-44.3359
-46.776
-49.1544
-51.384
-53.5964
-55.9326
-58.2203
-60.2602
-62.1135
-63.864
-65.613
-67.3149
-68.8432
-70.1962
-71.3635
-72.2751
-73.1319
-74.6746
-76.5753
-78.2103
-79.7762
-81.4262
-82.7048
-83.0967
-83.0562
-83.0483
-83.1894
-83.3938
-83.8194
-83.8893
-84.6661
-86.8602
-89.3516
-91.3941
-92.4351
-93.0951
-93.969
-95.0908
-96.1405
-97.336
-98.9031
-100.603
-102.415
-104.38
-106.572
-108.976
-111.066
-112.704
-114.292
-115.846
-117.369
-118.87
-120.375
-121.938
-123.661
-125.592
-127.671
-129.79
-131.936
-134.044
-136.094
-138.009
-139.833
-141.592
-143.353
-144.999
-146.705
-148.204
-149.911
-151.097
-152.876
32.1073
12.7384
0.806367
-4.49128
-7.98005
-11.4532
-14.8509
-17.8247
-20.6095
-23.5493
-26.6165
-29.6276
-32.5865
-35.5705
-37.8917
-39.749
-41.9521
-44.3343
-46.7718
-49.1478
-51.3768
-53.586
-55.9125
-58.1933
-60.2356
-62.0954
-63.8537
-65.6054
-67.3074
-68.8373
-70.191
-71.3617
-72.2956
-73.1792
-74.6998
-76.5696
-78.1985
-79.7481
-81.3563
-82.6102
-83.0334
-83.0353
-83.0554
-83.2187
-83.4382
-83.8734
-84.0423
-84.8433
-86.9304
-89.3109
-91.2842
-92.3659
-93.0799
-93.9649
-95.0789
-96.1582
-97.3664
-98.9077
-100.592
-102.386
-104.331
-106.486
-108.836
-110.882
-112.491
-114.055
-115.592
-117.109
-118.623
-120.156
-121.747
-123.45
-125.292
-127.251
-129.259
-131.282
-133.274
-135.214
-137.053
-138.824
-140.515
-142.188
-143.755
-145.361
-146.748
-148.274
-149.35
-150.975
32.003
12.8582
0.866617
-4.46016
-7.95941
-11.44
-14.8404
-17.821
-20.6101
-23.5464
-26.6078
-29.616
-32.566
-35.5348
-37.8711
-39.7498
-41.9507
-44.3314
-46.7672
-49.1405
-51.3685
-53.5733
-55.8875
-58.1597
-60.2052
-62.0736
-63.8417
-65.5972
-67.2988
-68.8298
-70.1841
-71.3593
-72.32
-73.236
-74.7315
-76.5639
-78.1837
-79.713
-81.2722
-82.4977
-82.9571
-83.0092
-83.0635
-83.2536
-83.4938
-83.9418
-84.2168
-85.0444
-87.0116
-89.2666
-91.1616
-92.2826
-93.0565
-93.9582
-95.065
-96.1723
-97.3905
-98.8978
-100.557
-102.329
-104.244
-106.353
-108.64
-110.631
-112.203
-113.738
-115.252
-116.76
-118.272
-119.809
-121.394
-123.059
-124.817
-126.657
-128.535
-130.421
-132.278
-134.088
-135.816
-137.474
-139.059
-140.636
-142.099
-143.548
-144.781
-146.157
-147.146
-148.64
31.8812
12.9961
0.936364
-4.42491
-7.93557
-11.4247
-14.8276
-17.8158
-20.609
-23.5419
-26.5994
-29.6091
-32.5512
-35.4998
-37.8516
-39.756
-41.9539
-44.3302
-46.7615
-49.1299
-51.3562
-53.5564
-55.8569
-58.1195
-60.1693
-62.0473
-63.8264
-65.5867
-67.288
-68.8202
-70.1761
-71.3581
-72.3503
-73.3046
-74.7722
-76.5596
-78.1658
-79.6698
-81.173
-82.366
-82.866
-82.9765
-83.0726
-83.2957
-83.5658
-84.0312
-84.4146
-85.2703
-87.1061
-89.2214
-91.0288
-92.1839
-93.0204
-93.9441
-95.044
-96.1725
-97.3957
-98.8643
-100.493
-102.235
-104.112
-106.16
-108.365
-110.285
-111.809
-113.306
-114.787
-116.265
-117.749
-119.254
-120.801
-122.41
-124.083
-125.803
-127.54
-129.274
-130.971
-132.619
-134.198
-135.721
-137.167
-138.584
-139.887
-141.183
-142.297
-143.545
-144.423
-145.746
31.7404
13.1524
1.01612
-4.38571
-7.90837
-11.4069
-14.8128
-17.8094
-20.6067
-23.5352
-26.5877
-29.5982
-32.5316
-35.4587
-37.8316
-39.7716
-41.9699
-44.3411
-46.7659
-49.1268
-51.3478
-53.54
-55.8225
-58.0714
-60.124
-62.012
-63.8042
-65.5709
-67.2731
-68.8083
-70.1678
-71.3594
-72.3872
-73.3838
-74.8201
-76.5545
-78.1415
-79.6148
-81.0559
-82.2136
-82.7596
-82.9388
-83.0861
-83.3495
-83.6599
-84.1499
-84.6395
-85.5226
-87.2181
-89.1798
-90.8904
-92.0709
-92.9681
-93.9155
-95.009
-96.1506
-97.3746
-98.8007
-100.385
-102.085
-103.909
-105.878
-107.979
-109.81
-111.27
-112.711
-114.14
-115.564
-116.991
-118.435
-119.909
-121.425
-122.983
-124.567
-126.149
-127.704
-129.212
-130.675
-132.077
-133.428
-134.69
-135.915
-137.043
-138.178
-139.148
-140.226
-140.96
-142.08
31.5798
13.3261
1.10573
-4.34316
-7.87789
-11.3866
-14.7959
-17.8015
-20.6032
-23.5268
-26.5736
-29.5844
-32.5085
-35.4121
-37.8077
-39.7875
-41.986
-44.3507
-46.7708
-49.1263
-51.3421
-53.5249
-55.7872
-58.0212
-60.0778
-61.9804
-63.7911
-65.5668
-67.2701
-68.8074
-70.1702
-71.3721
-72.4359
-73.4746
-74.8746
-76.5455
-78.1029
-79.5382
-80.9116
-82.0316
-82.6285
-82.8882
-83.0993
-83.4111
-83.7724
-84.2945
-84.8826
-85.792
-87.3441
-89.1402
-90.7455
-91.94
-92.892
-93.8622
-94.9481
-96.0944
-97.3134
-98.6907
-100.211
-101.845
-103.592
-105.462
-107.439
-109.162
-110.54
-111.899
-113.245
-114.586
-115.928
-117.278
-118.643
-120.029
-121.431
-122.837
-124.223
-125.577
-126.887
-128.152
-129.348
-130.487
-131.549
-132.579
-133.512
-134.442
-135.223
-136.091
-136.678
-137.558
31.4001
13.5143
1.20413
-4.2984
-7.84458
-11.3637
-14.7765
-17.7917
-20.5978
-23.5158
-26.5561
-29.5669
-32.4815
-35.3601
-37.7793
-39.8037
-42.0037
-44.3606
-46.777
-49.1257
-51.3317
-53.5008
-55.74
-57.958
-60.0204
-61.9426
-63.7772
-65.5665
-67.2739
-68.815
-70.1841
-71.4008
-72.5026
-73.5851
-74.9507
-76.5513
-78.0693
-79.4609
-80.7647
-81.8451
-82.4929
-82.8409
-83.127
-83.4951
-83.9168
-84.4782
-85.1498
-86.0802
-87.4904
-89.1115
-90.6029
-91.7944
-92.7884
-93.7762
-94.8481
-95.983
-97.1831
-98.5027
-99.9437
-101.486
-103.123
-104.857
-106.678
-108.258
-109.521
-110.765
-111.993
-113.215
-114.436
-115.654
-116.869
-118.08
-119.277
-120.454
-121.601
-122.717
-123.787
-124.807
-125.762
-126.667
-127.502
-128.292
-128.991
-129.666
-130.227
-130.813
-131.217
-131.742
31.2047
13.711
1.30832
-4.25365
-7.80956
-11.3385
-14.7548
-17.7796
-20.5895
-23.5011
-26.5343
-29.5445
-32.4498
-35.3027
-37.7459
-39.8201
-42.0231
-44.3711
-46.7851
-49.1256
-51.3171
-53.4694
-55.6845
-57.8856
-59.955
-61.8997
-63.7613
-65.5683
-67.2817
-68.8268
-70.2033
-71.4362
-72.5731
-73.6952
-75.0276
-76.5532
-78.0218
-79.3659
-80.603
-81.6453
-82.3418
-82.7818
-83.1524
-83.585
-84.075
-84.6841
-85.422
-86.3656
-87.6466
-89.099
-90.4743
-91.6425
-92.6588
-93.6543
-94.7041
-95.8093
-96.9697
-98.2168
-99.5591
-100.983
-102.479
-104.046
-105.675
-107.079
-108.195
-109.291
-110.369
-111.433
-112.483
-113.515
-114.524
-115.509
-116.466
-117.392
-118.281
-119.129
-119.929
-120.679
-121.373
-122.013
-122.593
-123.121
-123.586
-124.009
-124.364
-124.69
-124.937
-125.173
31.0016
13.9052
1.41174
-4.21276
-7.77511
-11.3118
-14.7311
-17.7647
-20.577
-23.4811
-26.5069
-29.516
-32.4126
-35.2404
-37.7072
-39.8357
-42.0432
-44.3804
-46.7947
-49.1258
-51.2967
-53.428
-55.6171
-57.7995
-59.8764
-61.8469
-63.7411
-65.573
-67.2972
-68.8483
-70.234
-71.485
-72.6528
-73.808
-75.11
-76.5599
-77.9709
-79.2639
-80.4401
-81.4483
-82.1898
-82.7206
-83.1808
-83.6829
-84.2425
-84.9009
-85.6836
-86.6267
-87.7954
-89.0933
-90.3514
-91.4744
-92.4874
-93.4728
-94.4871
-95.5416
-96.6376
-97.7912
-99.0093
-100.285
-101.608
-102.973
-104.372
-105.559
-106.494
-107.404
-108.288
-109.147
-109.979
-110.782
-111.553
-112.291
-112.992
-113.654
-114.272
-114.844
-115.368
-115.843
-116.267
-116.641
-116.967
-117.245
-117.477
-117.666
-117.813
-117.921
-117.993
-118.024
30.8055
14.0786
1.50227
-4.18191
-7.74528
-11.2855
-14.706
-17.7465
-20.5584
-23.4539
-26.4726
-29.4801
-32.3693
-35.1739
-37.6632
-39.8492
-42.0622
-44.3871
-46.8074
-49.1271
-51.2683
-53.3727
-55.5338
-57.6965
-59.7822
-61.7837
-63.7183
-65.5851
-67.3263
-68.8848
-70.2802
-71.5486
-72.7405
-73.9189
-75.1917
-76.5672
-77.9129
-79.151
-80.2721
-81.2522
-82.0344
-82.6519
-83.2033
-83.7787
-84.4055
-85.1116
-85.9222
-86.8526
-87.9262
-89.0877
-90.2319
-91.2925
-92.2759
-93.2285
-94.1883
-95.1686
-96.1717
-97.2041
-98.2695
-99.363
-100.476
-101.6
-102.727
-103.661
-104.382
-105.07
-105.726
-106.347
-106.933
-107.482
-107.992
-108.46
-108.886
-109.268
-109.605
-109.898
-110.146
-110.349
-110.51
-110.628
-110.706
-110.745
-110.749
-110.718
-110.658
-110.568
-110.453
-110.309
30.6606
14.1885
1.55275
-4.17218
-7.72872
-11.2651
-14.6836
-17.727
-20.534
-23.4208
-26.434
-29.4401
-32.3247
-35.1123
-37.6196
-39.8587
-42.0754
-44.3887
-46.8234
-49.1303
-51.2328
-53.3068
-55.4414
-57.5856
-59.6811
-61.7155
-63.6955
-65.6063
-67.3697
-68.9354
-70.3393
-71.6203
-72.8254
-74.0142
-75.2618
-76.5747
-77.859
-79.046
-80.1236
-81.0847
-81.9
-82.589
-83.2192
-83.8602
-84.5423
-85.2856
-86.109
-87.0194
-88.0196
-89.0746
-90.1196
-91.1088
-92.0399
-92.9376
-93.8256
-94.7142
-95.6055
-96.5011
-97.4012
-98.3009
-99.1921
-100.066
-100.912
-101.586
-102.09
-102.556
-102.984
-103.372
-103.719
-104.025
-104.289
-104.51
-104.69
-104.828
-104.925
-104.982
-105
-104.98
-104.926
-104.837
-104.718
-104.57
-104.396
-104.198
-103.979
-103.741
-103.486
-103.213
30.5806
14.227
1.55732
-4.18395
-7.72689
-11.2524
-14.666
-17.7079
-20.5061
-23.3844
-26.3946
-29.4
-32.2826
-35.0593
-37.5803
-39.8647
-42.0809
-44.3848
-46.8431
-49.1353
-51.1933
-53.2364
-55.347
-57.4748
-59.58
-61.6469
-63.6753
-65.6368
-67.425
-68.9965
-70.4066
-71.6944
-72.9027
-74.0919
-75.318
-76.5822
-77.814
-78.9559
-79.9989
-80.9475
-81.7885
-82.5324
-83.2251
-83.9191
-84.6432
-85.4128
-86.2409
-87.1299
-88.0744
-89.0493
-90.0127
-90.9328
-91.8038
-92.6378
-93.4487
-94.243
-95.0214
-95.7828
-96.5249
-97.242
-97.9268
-98.5697
-99.1622
-99.6051
-99.916
-100.185
-100.414
-100.6
-100.744
-100.846
-100.907
-100.928
-100.909
-100.852
-100.759
-100.632
-100.472
-100.282
-100.064
-99.8211
-99.5552
-99.269
-98.965
-98.6455
-98.3132
-97.9698
-97.6178
-97.2566
30.5632
14.1974
1.51645
-4.21665
-7.73935
-11.2471
-14.6526
-17.6891
-20.4739
-23.344
-26.3533
-29.359
-32.242
-35.0126
-37.5445
-39.869
-42.078
-44.3755
-46.869
-49.1425
-51.1486
-53.1602
-55.2476
-57.3595
-59.4754
-61.5751
-63.6576
-65.6792
-67.4939
-69.069
-70.4835
-71.7721
-72.9748
-74.1576
-75.3646
-76.5896
-77.7759
-78.8761
-79.8885
-80.8288
-81.6918
-82.48
-83.2235
-83.9615
-84.7187
-85.5074
-86.3359
-87.204
-88.1034
-89.0142
-89.9081
-90.7621
-91.5692
-92.3342
-93.0644
-93.7628
-94.4285
-95.0582
-95.6482
-96.1922
-96.6834
-97.1123
-97.4716
-97.7034
-97.8408
-97.9353
-97.9885
-97.9994
-97.9685
-97.8974
-97.7877
-97.6413
-97.4601
-97.2462
-97.0019
-96.7296
-96.4319
-96.1113
-95.7703
-95.4114
-95.0373
-94.6503
-94.2527
-93.8468
-93.4347
-93.0183
-92.5994
-92.1782
30.6083
14.0995
1.42983
-4.27042
-7.76618
-11.2491
-14.6436
-17.6705
-20.4374
-23.2996
-26.3104
-29.3174
-32.2029
-34.9709
-37.5123
-39.8729
-42.0653
-44.3609
-46.9039
-49.1522
-51.0984
-53.0784
-55.1419
-57.238
-59.3653
-61.4982
-63.643
-65.7361
-67.5773
-69.1534
-70.5712
-71.8538
-73.0427
-74.2141
-75.4042
-76.5984
-77.7451
-78.8045
-79.7878
-80.7224
-81.6053
-82.4301
-83.2153
-83.9898
-84.7733
-85.576
-86.4028
-87.2519
-88.1139
-88.9725
-89.8065
-90.5986
-91.3415
-92.0362
-92.6858
-93.2905
-93.8474
-94.3519
-94.7994
-95.1831
-95.4968
-95.7318
-95.8823
-95.9278
-95.9132
-95.8559
-95.758
-95.6191
-95.4405
-95.2245
-94.9738
-94.6908
-94.3779
-94.0378
-93.6732
-93.2868
-92.8815
-92.4597
-92.0243
-91.5776
-91.1221
-90.6602
-90.1939
-89.7252
-89.2559
-88.7878
-88.3223
-87.8599
30.7161
13.9311
1.29668
-4.34623
-7.80762
-11.2583
-14.6391
-17.6522
-20.396
-23.2508
-26.2653
-29.2748
-32.1651
-34.9334
-37.4841
-39.8776
-42.0404
-44.3414
-46.9514
-49.1638
-51.0416
-52.9905
-55.0282
-57.1079
-59.2472
-61.4132
-63.6323
-65.8113
-67.6767
-69.2511
-70.6717
-71.9403
-73.1069
-74.2634
-75.4391
-76.6097
-77.7208
-78.7374
-79.6905
-80.6217
-81.5238
-82.3802
-83.2006
-84.0058
-84.8108
-85.6238
-86.4481
-87.2807
-88.1119
-88.9272
-89.7093
-90.444
-91.1246
-91.7503
-92.3221
-92.8377
-93.2925
-93.6804
-93.9964
-94.2339
-94.3873
-94.4488
-94.4145
-94.297
-94.1509
-93.9633
-93.737
-93.472
-93.17
-92.8343
-92.4682
-92.0743
-91.6557
-91.2154
-90.7562
-90.2811
-89.7929
-89.2942
-88.7875
-88.2753
-87.7598
-87.2431
-86.727
-86.2133
-85.7036
-85.1993
-84.7015
-84.2109
30.873
13.7085
1.13172
-4.43689
-7.85902
-11.2731
-14.6394
-17.6355
-20.3531
-23.2019
-26.2221
-29.2349
-32.1317
-34.9019
-37.4624
-39.884
-42.0032
-44.3193
-47.0108
-49.1759
-50.983
-52.9046
-54.9149
-56.9789
-59.1292
-61.3242
-63.6274
-65.9015
-67.7835
-69.3543
-70.7782
-72.0242
-73.1617
-74.3027
-75.4686
-76.6251
-77.7061
-78.6779
-79.6002
-80.5311
-81.4518
-82.3344
-83.1834
-84.013
-84.8344
-85.6551
-86.4774
-87.2978
-88.1065
-88.8894
-89.6306
-90.3172
-90.9436
-91.5091
-92.0143
-92.4549
-92.8241
-93.1148
-93.3219
-93.4391
-93.4618
-93.3834
-93.2013
-92.9536
-92.7028
-92.4124
-92.0858
-91.7228
-91.3259
-90.8987
-90.4449
-89.9676
-89.47
-88.9552
-88.4263
-87.8862
-87.3378
-86.7837
-86.2265
-85.6682
-85.1114
-84.5576
-84.009
-83.4666
-82.9326
-82.4071
-81.8925
-81.3873
31.043
13.4743
0.965836
-4.52732
-7.91079
-11.2895
-14.6426
-17.6217
-20.3139
-23.1584
-26.1848
-29.2013
-32.1051
-34.8774
-37.4481
-39.8917
-41.9598
-44.2988
-47.0744
-49.186
-50.9298
-52.8302
-54.8139
-56.8644
-59.0227