/*--------------------------------*- C++ -*----------------------------------*\
  =========                 |
  \\      /  F ield         | OpenFOAM: The Open Source CFD Toolbox
   \\    /   O peration     | Website:  https://openfoam.org
    \\  /    A nd           | Version:  8
     \\/     M anipulation  |
\*---------------------------------------------------------------------------*/
FoamFile
{
    version     2.0;
    format      ascii;
    class       surfaceScalarField;
    location    "817";
    object      phi;
}
// * * * * * * * * * * * * * * * * * * * * * * * * * * * * * * * * * * * * * //

dimensions      [0 3 -1 0 0 0 0];

internalField   nonuniform List<scalar> 
40747
(
1.64125e-05
-1.53199e-06
5.38065e-06
1.10318e-05
1.98504e-05
-3.38109e-06
1.13879e-05
1.38432e-05
2.4001e-05
-5.60539e-06
1.81439e-05
1.7245e-05
2.90063e-05
-8.26775e-06
2.56312e-05
2.1519e-05
3.50334e-05
-1.14322e-05
3.37812e-05
2.68834e-05
4.22781e-05
-1.51576e-05
4.24587e-05
3.36005e-05
5.0968e-05
-1.94873e-05
5.14441e-05
4.19827e-05
6.13674e-05
-2.4435e-05
6.04146e-05
5.23969e-05
7.37837e-05
-2.99663e-05
6.89407e-05
6.52576e-05
8.85651e-05
-3.59646e-05
7.65092e-05
8.09966e-05
0.000106081
-4.21625e-05
8.25768e-05
0.000100014
0.000126726
-4.80568e-05
8.66265e-05
0.000122676
0.00015101
-5.28932e-05
8.8225e-05
0.000149411
0.000179727
-5.57902e-05
8.7147e-05
0.000180805
0.000214062
-5.59357e-05
8.35873e-05
0.000217621
0.000255862
-5.30179e-05
7.8564e-05
0.000260886
0.000308287
-4.82511e-05
7.42816e-05
0.000312569
0.000375127
-4.46688e-05
7.26464e-05
0.000376763
0.000456824
-4.33571e-05
7.20001e-05
0.00045747
0.00055307
-4.2208e-05
7.04429e-05
0.000554627
0.000668813
-4.05672e-05
6.82804e-05
0.000670976
0.000809082
-3.85824e-05
6.57106e-05
0.000811652
0.000978834
-3.62465e-05
6.26509e-05
0.000981894
0.00118423
-3.35286e-05
5.90195e-05
0.00118786
0.00143276
-3.0405e-05
5.47292e-05
0.00143705
0.00173349
-2.68616e-05
4.96721e-05
0.00173854
0.00209737
-2.29025e-05
4.37249e-05
0.00210332
0.00253768
-1.85448e-05
3.67432e-05
0.00254466
0.00307044
-1.38066e-05
2.85425e-05
0.00307864
0.003715
-8.68021e-06
1.88809e-05
0.00372466
0.00356
-4.17576e-06
9.78434e-06
0.0035691
0.0035602
1.3098e-07
7.65118e-07
0.00356922
0.00356021
4.43031e-06
-8.27016e-06
0.00356924
0.00356002
8.91506e-06
-1.74171e-05
0.00356917
0.00360234
1.38424e-05
-2.68668e-05
0.00361179
0.00299631
1.83976e-05
-3.49504e-05
0.0030044
0.00249221
2.25967e-05
-4.18849e-05
0.00249914
0.00207292
2.64273e-05
-4.78351e-05
0.00207887
0.00172419
2.98725e-05
-5.29292e-05
0.00172929
0.00143416
3.29245e-05
-5.72744e-05
0.00143851
0.00119295
3.55897e-05
-6.09667e-05
0.00119664
0.000992329
3.78846e-05
-6.40876e-05
0.00099545
0.000825474
3.98339e-05
-6.67079e-05
0.000828094
0.000686709
4.14544e-05
-6.88901e-05
0.000688891
0.00057137
4.2702e-05
-7.05831e-05
0.000573063
0.000475333
4.37273e-05
-7.16505e-05
0.0004764
0.00039478
4.52277e-05
-7.25407e-05
0.00039567
0.000326862
4.80295e-05
-7.45742e-05
0.000328895
0.00027084
5.14351e-05
-7.83237e-05
0.00027459
0.000225768
5.38108e-05
-8.28255e-05
0.00023027
0.000189499
5.41034e-05
-8.65643e-05
0.000193238
0.000159925
5.20648e-05
-8.82411e-05
0.000161602
0.000135352
4.80581e-05
-8.71893e-05
0.0001343
0.00011455
4.27733e-05
-8.34313e-05
0.000110792
9.67577e-05
3.69131e-05
-7.74232e-05
9.07497e-05
8.15117e-05
3.10186e-05
-6.97832e-05
7.38716e-05
6.84824e-05
2.54417e-05
-6.11358e-05
5.98351e-05
5.73956e-05
2.03769e-05
-5.20381e-05
4.82979e-05
4.80052e-05
1.59055e-05
-4.29401e-05
3.89072e-05
4.00854e-05
1.20357e-05
-3.417e-05
3.13153e-05
3.34308e-05
8.73245e-06
-2.59427e-05
2.52035e-05
2.78554e-05
5.93996e-06
-1.8384e-05
2.02967e-05
2.31949e-05
3.59481e-06
-1.15539e-05
1.63649e-05
1.93054e-05
1.63422e-06
-5.46579e-06
1.32172e-05
1.60633e-05
1.05975e-05
3.69644e-06
7.33539e-06
2.40577e-06
1.29067e-06
2.05615e-06
3.49616e-07
1.92136e-06
1.34785e-07
1.81945e-06
1.01916e-07
1.75495e-06
6.44981e-08
1.70416e-06
5.07873e-08
1.67411e-06
3.00568e-08
1.66397e-06
1.01372e-08
1.64484e-06
1.91276e-08
1.60881e-06
3.60281e-08
1.57791e-06
3.09036e-08
1.5167e-06
6.12046e-08
1.36736e-06
1.49344e-07
1.2988e-06
6.85599e-08
1.35062e-06
-5.18195e-08
1.39217e-06
-4.15458e-08
1.42053e-06
-2.8368e-08
1.43057e-06
-1.00372e-08
1.43346e-06
-2.89048e-09
1.44718e-06
-1.37164e-08
1.46771e-06
-2.05333e-08
1.45716e-06
1.05552e-08
1.40741e-06
4.97442e-08
1.35235e-06
5.50609e-08
1.30719e-06
4.51578e-08
1.27695e-06
3.02417e-08
1.25332e-06
2.36307e-08
1.22846e-06
2.486e-08
1.20243e-06
2.6028e-08
1.17254e-06
2.98952e-08
1.14561e-06
2.69299e-08
1.19528e-06
-4.96671e-08
1.37772e-06
-1.82446e-07
1.48932e-06
-1.11594e-07
1.4811e-06
8.21326e-09
1.48123e-06
-1.26817e-10
1.45945e-06
2.17823e-08
1.29697e-06
1.62473e-07
1.02681e-06
2.70159e-07
8.29373e-07
1.97442e-07
7.58664e-07
7.07091e-08
7.7652e-07
-1.78562e-08
8.28747e-07
-5.22272e-08
8.77155e-07
-4.84074e-08
9.28143e-07
-5.0988e-08
1.30729e-06
-3.79151e-07
1.77723e-06
-4.69937e-07
1.95931e-06
-1.82077e-07
1.87446e-06
8.48504e-08
1.63265e-06
2.41807e-07
1.53191e-06
1.0074e-07
1.59549e-06
-6.35798e-08
1.68025e-06
-8.47581e-08
1.72446e-06
-4.4212e-08
1.79884e-06
-7.43852e-08
1.88126e-06
-8.2419e-08
1.93117e-06
-4.99055e-08
1.98185e-06
-5.0683e-08
2.03712e-06
-5.52712e-08
2.08823e-06
-5.11077e-08
2.10254e-06
-1.4307e-08
2.07363e-06
2.89039e-08
2.03578e-06
3.78542e-08
1.98887e-06
4.69054e-08
1.93852e-06
5.03575e-08
1.88249e-06
5.60293e-08
1.81754e-06
6.49484e-08
1.76169e-06
5.5854e-08
1.82252e-06
-6.08387e-08
2.00485e-06
-1.82325e-07
2.14775e-06
-1.42905e-07
2.23306e-06
-8.53011e-08
2.32165e-06
-8.85928e-08
2.31875e-06
2.89655e-09
2.18243e-06
1.36318e-07
1.83272e-06
3.49717e-07
1.4368e-06
3.95913e-07
1.5754e-06
-1.38597e-07
1.72281e-06
-1.47413e-07
1.63895e-06
8.38626e-08
1.69539e-06
-5.64393e-08
1.5712e-06
1.24189e-07
1.39513e-06
1.76068e-07
1.26756e-06
1.2757e-07
2.05073e-06
-7.8317e-07
3.06585e-06
-1.01512e-06
-6.78134e-07
3.74399e-06
5.28514e-06
1.58935e-05
3.53611e-06
3.0397e-06
3.06178e-06
8.23943e-07
2.90834e-06
2.88229e-07
2.81087e-06
1.99384e-07
2.74747e-06
1.27902e-07
2.72866e-06
6.95915e-08
2.74606e-06
1.26602e-08
2.76773e-06
-1.1535e-08
2.76401e-06
2.28474e-08
2.73658e-06
6.34571e-08
2.71242e-06
5.50651e-08
2.65124e-06
1.22383e-07
2.51203e-06
2.8856e-07
2.4552e-06
1.25393e-07
2.508e-06
-1.04629e-07
2.5474e-06
-8.09362e-08
2.56992e-06
-5.08878e-08
2.57179e-06
-1.19152e-08
2.56603e-06
2.87409e-09
2.56396e-06
-1.16453e-08
2.57216e-06
-2.87358e-08
2.57585e-06
6.86774e-09
2.57023e-06
5.53658e-08
2.59682e-06
2.84646e-08
2.66874e-06
-2.67558e-08
2.74347e-06
-4.44878e-08
2.79325e-06
-2.61506e-08
2.83704e-06
-1.89308e-08
2.8862e-06
-2.31381e-08
2.9352e-06
-1.91043e-08
3.00255e-06
-4.04173e-08
3.09144e-06
-1.38561e-07
3.19437e-06
-2.85373e-07
3.2399e-06
-1.57122e-07
3.21982e-06
2.82924e-08
3.20244e-06
1.72557e-08
3.18429e-06
3.99302e-08
3.11945e-06
2.27308e-07
3.05685e-06
3.32766e-07
3.00569e-06
2.48598e-07
2.94604e-06
1.30357e-07
3.01504e-06
-8.68567e-08
3.21736e-06
-2.54546e-07
3.40512e-06
-2.36164e-07
3.55085e-06
-1.96722e-07
3.72789e-06
-5.56192e-07
3.8828e-06
-6.24848e-07
3.88042e-06
-1.79697e-07
3.71367e-06
2.51602e-07
3.53885e-06
4.16631e-07
3.47069e-06
1.68899e-07
3.49212e-06
-8.50113e-08
3.52502e-06
-1.17656e-07
3.59505e-06
-1.14243e-07
3.71396e-06
-1.93296e-07
3.79045e-06
-1.5891e-07
3.82023e-06
-7.96841e-08
3.84265e-06
-7.31048e-08
3.86843e-06
-8.10533e-08
3.87395e-06
-5.66182e-08
3.82564e-06
3.39933e-08
3.75572e-06
9.88316e-08
3.71432e-06
7.92475e-08
3.67783e-06
8.33948e-08
3.65053e-06
7.76585e-08
3.62973e-06
7.683e-08
3.61521e-06
7.9474e-08
3.61787e-06
5.31947e-08
3.67358e-06
-1.16553e-07
3.79938e-06
-3.08122e-07
3.88055e-06
-2.2408e-07
3.90783e-06
-1.1258e-07
3.97461e-06
-1.55374e-07
3.99161e-06
-1.41051e-08
3.91537e-06
2.12565e-07
3.70239e-06
5.62695e-07
3.45308e-06
6.45217e-07
3.47687e-06
-1.62386e-07
3.67114e-06
-3.41679e-07
3.79937e-06
-4.43692e-08
3.92878e-06
-1.85845e-07
4.18534e-06
-1.3237e-07
4.39384e-06
-3.24374e-08
4.53202e-06
-1.06111e-08
4.78062e-06
-1.03177e-06
5.11072e-06
-1.34521e-06
-1.13254e-06
5.56513e-06
7.23592e-06
2.59026e-05
4.9459e-06
5.32972e-06
4.32005e-06
1.4498e-06
4.14654e-06
4.6174e-07
4.05669e-06
2.89226e-07
3.9959e-06
1.88697e-07
4.01768e-06
4.78104e-08
4.09362e-06
-6.32778e-08
4.15528e-06
-7.31962e-08
4.17214e-06
5.98265e-09
4.15721e-06
7.83923e-08
4.14331e-06
6.896e-08
4.08275e-06
1.82944e-07
3.95762e-06
4.13694e-07
3.91654e-06
1.66478e-07
3.96962e-06
-1.57718e-07
4.00532e-06
-1.16628e-07
4.01987e-06
-6.54442e-08
4.01185e-06
-3.89527e-09
3.99724e-06
1.74819e-08
3.98139e-06
4.20846e-09
3.97955e-06
-2.68934e-08
4.0041e-06
-1.76824e-08
4.05557e-06
3.89358e-09
4.18043e-06
-9.63927e-08
4.38098e-06
-2.27309e-07
4.56516e-06
-2.28667e-07
4.69723e-06
-1.58223e-07
4.82338e-06
-1.45077e-07
4.96237e-06
-1.62125e-07
5.10499e-06
-1.61732e-07
5.28186e-06
-2.17287e-07
5.41733e-06
-2.74028e-07
5.43255e-06
-3.00589e-07
5.40172e-06
-1.26296e-07
5.3646e-06
6.54174e-08
5.32612e-06
5.57321e-08
5.30912e-06
5.69338e-08
5.34899e-06
1.87434e-07
5.53182e-06
1.4994e-07
5.80427e-06
-2.38595e-08
6.03497e-06
-1.00336e-07
6.26685e-06
-3.18739e-07
6.53838e-06
-5.26079e-07
6.73684e-06
-4.34627e-07
6.89036e-06
-3.50238e-07
6.7519e-06
-4.17735e-07
6.44684e-06
-3.19782e-07
6.1862e-06
8.09441e-08
5.92131e-06
5.16485e-07
5.81597e-06
5.2197e-07
5.78327e-06
2.01602e-07
5.77002e-06
-7.17649e-08
5.76236e-06
-1.09988e-07
5.86768e-06
-2.19564e-07
6.0193e-06
-3.4492e-07
6.06581e-06
-2.05418e-07
6.06084e-06
-7.4716e-08
6.04245e-06
-5.4708e-08
6.02448e-06
-6.30882e-08
5.97917e-06
-1.13102e-08
5.87514e-06
1.38026e-07
5.76817e-06
2.05799e-07
5.72238e-06
1.25037e-07
5.69538e-06
1.10401e-07
5.68884e-06
8.41978e-08
5.70039e-06
6.52761e-08
5.73256e-06
4.73013e-08
5.79274e-06
-6.98199e-09
5.85963e-06
-1.83445e-07
5.93932e-06
-3.8781e-07
5.95945e-06
-2.44208e-07
5.93288e-06
-8.60093e-08
5.96473e-06
-1.87227e-07
5.98519e-06
-3.45645e-08
5.96277e-06
2.34987e-07
5.88093e-06
6.4453e-07
5.85368e-06
6.72465e-07
5.82399e-06
-1.32688e-07
5.97902e-06
-4.96714e-07
6.25969e-06
-3.25041e-07
6.42132e-06
-3.47473e-07
6.84651e-06
-5.57561e-07
7.22598e-06
-4.11909e-07
7.63364e-06
-4.18264e-07
7.68738e-06
-1.08552e-06
7.50475e-06
-1.16258e-06
-1.39999e-06
7.7722e-06
9.90458e-06
3.7517e-05
6.92479e-06
8.30951e-06
6.09556e-06
2.27903e-06
5.90198e-06
6.55317e-07
5.83064e-06
3.60572e-07
5.77749e-06
2.41839e-07
5.85607e-06
-3.07618e-08
6.01095e-06
-2.18164e-07
6.12801e-06
-1.90248e-07
6.17586e-06
-4.18734e-08
6.18041e-06
7.38464e-08
6.18168e-06
6.76824e-08
6.12133e-06
2.43301e-07
6.00836e-06
5.2666e-07
5.98493e-06
1.89912e-07
6.04101e-06
-2.13799e-07
6.07321e-06
-1.48828e-07
6.0785e-06
-7.07366e-08
6.05875e-06
1.58568e-08
6.03348e-06
4.27551e-08
6.00692e-06
3.07628e-08
6.00113e-06
-2.11006e-08
6.0608e-06
-7.73485e-08
6.19245e-06
-1.27759e-07
6.42999e-06
-3.33932e-07
6.75416e-06
-5.51481e-07
7.03963e-06
-5.1414e-07
7.25738e-06
-3.75971e-07
7.47226e-06
-3.59956e-07
7.7057e-06
-3.95571e-07
7.94386e-06
-3.99886e-07
8.22765e-06
-5.01083e-07
8.42625e-06
-4.72626e-07
8.40267e-06
-2.77007e-07
8.31872e-06
-4.235e-08
8.2541e-06
1.30041e-07
8.18801e-06
1.21819e-07
8.16327e-06
8.16756e-08
8.26885e-06
8.18562e-08
8.61956e-06
-2.00773e-07
9.11721e-06
-5.21505e-07
9.61072e-06
-5.93851e-07
1.00085e-05
-7.16541e-07
1.0301e-05
-8.18517e-07
1.04586e-05
-5.92242e-07
1.06292e-05
-5.20836e-07
1.03798e-05
-1.68331e-07
9.74365e-06
3.16341e-07
9.18821e-06
6.36383e-07
8.81543e-06
8.89265e-07
8.75584e-06
5.8156e-07
8.75278e-06
2.04663e-07
8.73008e-06
-4.90663e-08
8.71273e-06
-9.26385e-08
8.85319e-06
-3.60023e-07
9.00299e-06
-4.94725e-07
8.98669e-06
-1.89111e-07
8.93116e-06
-1.91862e-08
8.86154e-06
1.49044e-08
8.79108e-06
7.37636e-09
8.69505e-06
8.47209e-08
8.54786e-06
2.8522e-07
8.41347e-06
3.40185e-07
8.36474e-06
1.73772e-07
8.34688e-06
1.28255e-07
8.35687e-06
7.42039e-08
8.39483e-06
2.73256e-08
8.46504e-06
-2.29131e-08
8.57402e-06
-1.15958e-07
8.67372e-06
-2.83147e-07
8.73134e-06
-4.4543e-07
8.70346e-06
-2.16329e-07
8.63284e-06
-1.53887e-08
8.61287e-06
-1.67257e-07
8.61701e-06
-3.87039e-08
8.6389e-06
2.13097e-07
8.66159e-06
6.21834e-07
8.84439e-06
4.89664e-07
8.85763e-06
-1.45923e-07
8.94524e-06
-5.84323e-07
9.28043e-06
-6.60235e-07
9.46761e-06
-5.34648e-07
9.91344e-06
-1.0034e-06
1.02971e-05
-7.9554e-07
1.07291e-05
-8.50262e-07
1.08521e-05
-1.20859e-06
1.05582e-05
-8.68682e-07
-1.4575e-06
1.06158e-05
1.35386e-05
5.08618e-05
9.69456e-06
1.21535e-05
8.5873e-06
3.38629e-06
8.37143e-06
8.71187e-07
8.33924e-06
3.92757e-07
8.30418e-06
2.76903e-07
8.45606e-06
-1.82641e-07
8.70761e-06
-4.6972e-07
8.89127e-06
-3.7391e-07
8.98067e-06
-1.3127e-07
9.0115e-06
4.30186e-08
9.0286e-06
5.05843e-08
8.97353e-06
2.9837e-07
8.87396e-06
6.26228e-07
8.86878e-06
1.95094e-07
8.93334e-06
-2.78359e-07
8.96408e-06
-1.79571e-07
8.96118e-06
-6.78381e-08
8.92866e-06
4.83774e-08
8.88788e-06
8.35371e-08
8.85084e-06
6.77979e-08
8.84714e-06
-1.73958e-08
8.95815e-06
-1.88363e-07
9.19915e-06
-3.6876e-07
9.56086e-06
-6.95642e-07
9.99729e-06
-9.87907e-07
1.03789e-05
-8.95756e-07
1.06864e-05
-6.83514e-07
1.09942e-05
-6.67673e-07
1.13253e-05
-7.26742e-07
1.16618e-05
-7.36338e-07
1.20483e-05
-8.87643e-07
1.23208e-05
-7.45086e-07
1.23081e-05
-2.64346e-07
1.22014e-05
6.43912e-08
1.21042e-05
2.27225e-07
1.20045e-05
2.21547e-07
1.196e-05
1.26155e-07
1.20942e-05
-5.23447e-08
1.25478e-05
-6.5438e-07
1.31801e-05
-1.15379e-06
1.3804e-05
-1.21777e-06
1.43009e-05
-1.2134e-06
1.46486e-05
-1.16619e-06
1.48113e-05
-7.54991e-07
1.50145e-05
-7.24007e-07
1.47375e-05
1.087e-07
1.38687e-05
1.18511e-06
1.30551e-05
1.44996e-06
1.25776e-05
1.36676e-06
1.25311e-05
6.28085e-07
1.25562e-05
1.79565e-07
1.2548e-05
-4.09002e-08
1.2541e-05
-8.56544e-08
1.26797e-05
-4.98715e-07
1.27744e-05
-5.89362e-07
1.26789e-05
-9.3641e-08
1.25657e-05
9.40439e-08
1.2443e-05
1.37619e-07
1.23203e-05
1.30058e-07
1.21763e-05
2.2868e-07
1.19959e-05
4.6563e-07
1.18427e-05
4.93422e-07
1.17928e-05
2.23605e-07
1.17853e-05
1.35834e-07
1.18108e-05
4.86575e-08
1.18728e-05
-3.46758e-08
1.19753e-05
-1.25449e-07
1.21242e-05
-2.64839e-07
1.22653e-05
-4.24198e-07
1.23173e-05
-4.97434e-07
1.22628e-05
-1.61819e-07
1.21652e-05
8.22069e-08
1.20908e-05
-9.29212e-08
1.20643e-05
-1.21732e-08
1.21117e-05
1.65703e-07
1.221e-05
5.23493e-07
1.2531e-05
1.68707e-07
1.26561e-05
-2.71025e-07
1.27262e-05
-6.54463e-07
1.30427e-05
-9.76741e-07
1.3258e-05
-7.49916e-07
1.36596e-05
-1.40502e-06
1.39855e-05
-1.12145e-06
1.43484e-05
-1.21316e-06
1.45814e-05
-1.44155e-06
1.43981e-05
-6.85403e-07
-1.37093e-06
1.43116e-05
1.84526e-05
6.60097e-05
1.35523e-05
1.70538e-05
1.20646e-05
4.87396e-06
1.18124e-05
1.12344e-06
1.18523e-05
3.52839e-07
1.18603e-05
2.68918e-07
1.20997e-05
-4.22005e-07
1.24439e-05
-8.14008e-07
1.26819e-05
-6.11881e-07
1.28128e-05
-2.62166e-07
1.28724e-05
-1.65401e-08
1.29002e-05
2.27187e-08
1.28687e-05
3.29912e-07
1.28102e-05
6.84733e-07
1.2838e-05
1.67256e-07
1.29205e-05
-3.60795e-07
1.29545e-05
-2.13588e-07
1.29483e-05
-6.16178e-08
1.29027e-05
9.39403e-08
1.28396e-05
1.46636e-07
1.27925e-05
1.14872e-07
1.27987e-05
-2.35471e-08
1.29754e-05
-3.65036e-07
1.33508e-05
-7.44201e-07
1.38445e-05
-1.1893e-06
1.43849e-05
-1.52835e-06
1.48636e-05
-1.37444e-06
1.52652e-05
-1.08515e-06
1.56627e-05
-1.06516e-06
1.60803e-05
-1.1443e-06
1.65008e-05
-1.15682e-06
1.69632e-05
-1.35007e-06
1.73012e-05
-1.08309e-06
1.73108e-05
-2.73919e-07
1.71859e-05
1.8929e-07
1.7066e-05
3.47076e-07
1.69392e-05
3.48311e-07
1.68687e-05
1.96673e-07
1.70132e-05
-1.96851e-07
1.75298e-05
-1.17092e-06
1.82315e-05
-1.85547e-06
1.89163e-05
-1.90266e-06
1.94721e-05
-1.76913e-06
1.98609e-05
-1.55505e-06
2.00202e-05
-9.14275e-07
2.02273e-05
-9.31054e-07
1.99626e-05
3.73346e-07
1.89807e-05
2.16701e-06
1.79943e-05
2.43638e-06
1.74169e-05
1.94418e-06
1.73462e-05
6.98786e-07
1.73953e-05
1.30487e-07
1.7408e-05
-5.36221e-08
1.74007e-05
-7.83619e-08
1.74821e-05
-5.80142e-07
1.74871e-05
-5.94377e-07
1.73255e-05
6.80061e-08
1.71577e-05
2.6179e-07
1.69845e-05
3.10865e-07
1.68113e-05
3.03252e-07
1.66227e-05
4.17297e-07
1.64168e-05
6.71484e-07
1.62483e-05
6.61956e-07
1.61942e-05
2.77653e-07
1.61939e-05
1.36164e-07
1.62334e-05
9.13683e-09
1.63172e-05
-1.18457e-07
1.64455e-05
-2.53749e-07
1.66219e-05
-4.41233e-07
1.67972e-05
-5.99508e-07
1.68562e-05
-5.56431e-07
1.67986e-05
-1.04211e-07
1.67015e-05
1.79345e-07
1.65965e-05
1.20462e-08
1.65245e-05
5.9857e-08
1.65616e-05
1.28541e-07
1.67004e-05
3.84691e-07
1.70816e-05
-2.12428e-07
1.73352e-05
-5.24639e-07
1.74528e-05
-7.72113e-07
1.77245e-05
-1.24841e-06
1.79561e-05
-9.81477e-07
1.82763e-05
-1.7253e-06
1.85177e-05
-1.36283e-06
1.87752e-05
-1.47059e-06
1.9077e-05
-1.74335e-06
1.91127e-05
-7.21147e-07
-1.26108e-06
1.90029e-05
2.50291e-05
8.29633e-05
1.88783e-05
2.32046e-05
1.68981e-05
6.85415e-06
1.65685e-05
1.45305e-06
1.67105e-05
2.10765e-07
1.68006e-05
1.78889e-07
1.71271e-05
-7.48491e-07
1.75192e-05
-1.20611e-06
1.77687e-05
-8.61385e-07
1.79238e-05
-4.17328e-07
1.80071e-05
-9.98101e-08
1.80385e-05
-8.63e-09
1.80458e-05
3.22589e-07
1.80916e-05
6.38952e-07
1.82068e-05
5.19813e-08
1.83217e-05
-4.75655e-07
1.83685e-05
-2.60429e-07
1.83675e-05
-6.05491e-08
1.83129e-05
1.48457e-07
1.82332e-05
2.26352e-07
1.81913e-05
1.56795e-07
1.82209e-05
-5.31517e-08
1.84667e-05
-6.10811e-07
1.89768e-05
-1.25432e-06
1.95903e-05
-1.80277e-06
2.02151e-05
-2.15317e-06
2.07776e-05
-1.93698e-06
2.1262e-05
-1.56948e-06
2.17222e-05
-1.52544e-06
2.21807e-05
-1.60273e-06
2.26348e-05
-1.61094e-06
2.31148e-05
-1.83014e-06
2.34855e-05
-1.45378e-06
2.34827e-05
-2.71126e-07
2.33073e-05
3.64689e-07
2.31704e-05
4.84025e-07
2.30296e-05
4.89083e-07
2.29392e-05
2.8714e-07
2.31006e-05
-3.58345e-07
2.36747e-05
-1.74493e-06
2.44129e-05
-2.59366e-06
2.51158e-05
-2.60562e-06
2.56896e-05
-2.34293e-06
2.60975e-05
-1.96294e-06
2.62506e-05
-1.06736e-06
2.64502e-05
-1.1307e-06
2.62275e-05
5.96123e-07
2.52409e-05
3.15354e-06
2.41696e-05
3.5077e-06
2.34992e-05
2.61457e-06
2.33836e-05
8.14358e-07
2.34471e-05
6.69944e-08
2.34617e-05
-6.8229e-08
2.34215e-05
-3.81222e-08
2.34143e-05
-5.72909e-07
2.3336e-05
-5.16103e-07
2.31353e-05
2.68684e-07
2.29238e-05
4.73335e-07
2.27064e-05
5.28253e-07
2.24868e-05
5.22821e-07
2.22603e-05
6.43768e-07
2.20384e-05
8.93465e-07
2.18611e-05
8.39212e-07
2.18006e-05
3.38157e-07
2.18006e-05
1.36208e-07
2.18487e-05
-3.8963e-08
2.19472e-05
-2.1702e-07
2.20894e-05
-3.95907e-07
2.22748e-05
-6.26621e-07
2.24658e-05
-7.90551e-07
2.25429e-05
-6.33564e-07
2.25026e-05
-6.38222e-08
2.24275e-05
2.54385e-07
2.23228e-05
1.1677e-07
2.22023e-05
1.80315e-07
2.2199e-05
1.3188e-07
2.23409e-05
2.42763e-07
2.27206e-05
-5.92097e-07
2.30643e-05
-8.6836e-07
2.32465e-05
-9.54254e-07
2.34882e-05
-1.49016e-06
2.37135e-05
-1.20678e-06
2.39266e-05
-1.93839e-06
2.40961e-05
-1.53239e-06
2.42755e-05
-1.64996e-06
2.46104e-05
-2.07826e-06
2.48494e-05
-9.60141e-07
-1.22928e-06
2.48176e-05
3.37295e-05
0.000101631
2.61413e-05
3.07928e-05
2.35685e-05
9.42691e-06
2.30838e-05
1.93774e-06
2.33175e-05
-2.28531e-08
2.34952e-05
1.12307e-09
2.38702e-05
-1.12343e-06
2.42468e-05
-1.58278e-06
2.44624e-05
-1.07698e-06
2.46183e-05
-5.73201e-07
2.47135e-05
-1.94977e-07
2.47392e-05
-3.43237e-08
2.47745e-05
2.87202e-07
2.49786e-05
4.3486e-07
2.52519e-05
-2.21278e-07
2.54139e-05
-6.37668e-07
2.54825e-05
-3.29065e-07
2.54881e-05
-6.61147e-08
2.54417e-05
1.94832e-07
2.53921e-05
2.75988e-07
2.54035e-05
1.45384e-07
2.54763e-05
-1.2594e-07
2.57593e-05
-8.93837e-07
2.63382e-05
-1.8332e-06
2.70065e-05
-2.4711e-06
2.76563e-05
-2.80298e-06
2.82446e-05
-2.52528e-06
2.8759e-05
-2.08388e-06
2.92332e-05
-1.99957e-06
2.96833e-05
-2.0529e-06
3.01223e-05
-2.04986e-06
3.05726e-05
-2.28044e-06
3.09418e-05
-1.82299e-06
3.0903e-05
-2.32337e-07
3.06633e-05
6.04413e-07
3.05081e-05
6.39155e-07
3.03613e-05
6.3588e-07
3.02607e-05
3.87796e-07
3.04372e-05
-5.34866e-07
3.10428e-05
-2.35054e-06
3.17956e-05
-3.34648e-06
3.25082e-05
-3.31824e-06
3.30857e-05
-2.92039e-06
3.35092e-05
-2.38641e-06
3.36761e-05
-1.23433e-06
3.38825e-05
-1.3371e-06
3.37174e-05
7.61298e-07
3.28017e-05
4.06917e-06
3.17205e-05
4.58896e-06
3.09691e-05
3.36596e-06
3.07892e-05
9.9424e-07
3.0843e-05
1.31539e-08
3.08383e-05
-6.34785e-08
3.07504e-05
4.98019e-08
3.06628e-05
-4.85356e-07
3.05276e-05
-3.80877e-07
3.03119e-05
4.84384e-07
3.00754e-05
7.09867e-07
2.98287e-05
7.74945e-07
2.95758e-05
7.75684e-07
2.93245e-05
8.95108e-07
2.90975e-05
1.12044e-06
2.89243e-05
1.01244e-06
2.88614e-05
4.00966e-07
2.88576e-05
1.40087e-07
2.89078e-05
-8.92134e-08
2.90098e-05
-3.18967e-07
2.91492e-05
-5.35352e-07
2.9324e-05
-8.01418e-07
2.95093e-05
-9.75899e-07
2.96042e-05
-7.28432e-07
2.95971e-05
-5.67497e-08
2.95517e-05
2.99862e-07
2.94618e-05
2.06602e-07
2.93282e-05
3.13924e-07
2.92946e-05
1.65464e-07
2.94096e-05
1.27854e-07
2.97332e-05
-9.15776e-07
3.0099e-05
-1.23417e-06
3.03154e-05
-1.17061e-06
3.05355e-05
-1.7103e-06
3.07372e-05
-1.40845e-06
3.08478e-05
-2.04897e-06
3.10121e-05
-1.69672e-06
3.12101e-05
-1.84796e-06
3.15427e-05
-2.41088e-06
3.18943e-05
-1.31171e-06
-1.33739e-06
3.20024e-05
4.51167e-05
0.000121772
3.59055e-05
4.0004e-05
3.26284e-05
1.2704e-05
3.18631e-05
2.70306e-06
3.2079e-05
-2.38777e-07
3.22688e-05
-1.8866e-07
3.26141e-05
-1.4687e-06
3.29279e-05
-1.89657e-06
3.30849e-05
-1.23403e-06
3.32215e-05
-7.09803e-07
3.33194e-05
-2.92889e-07
3.33382e-05
-5.31319e-08
3.33822e-05
2.43241e-07
3.37451e-05
7.19543e-08
3.42035e-05
-6.79631e-07
3.44202e-05
-8.54445e-07
3.45047e-05
-4.13514e-07
3.45067e-05
-6.81087e-08
3.44928e-05
2.08682e-07
3.45239e-05
2.44961e-07
3.46136e-05
5.56562e-08
3.47187e-05
-2.31079e-07
3.49684e-05
-1.1435e-06
3.5494e-05
-2.35877e-06
3.61187e-05
-3.09589e-06
3.67297e-05
-3.41388e-06
3.72879e-05
-3.08357e-06
3.77834e-05
-2.5793e-06
3.82385e-05
-2.45474e-06
3.86625e-05
-2.4769e-06
3.90722e-05
-2.45949e-06
3.94832e-05
-2.69145e-06
3.98443e-05
-2.18408e-06
3.97857e-05
-1.73758e-07
3.95025e-05
8.87602e-07
3.9331e-05
8.10665e-07
3.91828e-05
7.84101e-07
3.90765e-05
4.94094e-07
3.92419e-05
-7.00243e-07
3.98335e-05
-2.94219e-06
4.05876e-05
-4.10058e-06
4.13191e-05
-4.04974e-06
4.19064e-05
-3.50772e-06
4.2353e-05
-2.83299e-06
4.2556e-05
-1.43727e-06
4.27862e-05
-1.56735e-06
4.26979e-05
8.49576e-07
4.19131e-05
4.85398e-06
4.08838e-05
5.61833e-06
4.00674e-05
4.18228e-06
3.97927e-05
1.26895e-06
3.97985e-05
7.36736e-09
3.97648e-05
-2.97259e-08
3.96402e-05
1.74352e-07
3.94983e-05
-3.43464e-07
3.93279e-05
-2.10505e-07
3.91108e-05
7.01524e-07
3.88693e-05
9.51412e-07
3.86119e-05
1.03228e-06
3.83453e-05
1.04233e-06
3.80848e-05
1.15557e-06
3.78622e-05
1.343e-06
3.77021e-05
1.17254e-06
3.76421e-05
4.61054e-07
3.76352e-05
1.46945e-07
3.76814e-05
-1.35448e-07
3.77744e-05
-4.11937e-07
3.78977e-05
-6.58603e-07
3.80496e-05
-9.53321e-07
3.82142e-05
-1.14051e-06
3.8315e-05
-8.29307e-07
3.83466e-05
-8.83156e-08
3.83423e-05
3.04203e-07
3.8283e-05
2.65824e-07
3.81918e-05
4.05208e-07
3.81684e-05
1.88817e-07
3.82485e-05
4.77274e-08
3.84792e-05
-1.14644e-06
3.88088e-05
-1.56377e-06
3.90376e-05
-1.39938e-06
3.92325e-05
-1.90519e-06
3.94163e-05
-1.59231e-06
3.94767e-05
-2.10934e-06
3.96992e-05
-1.91924e-06
3.99725e-05
-2.12126e-06
4.0246e-05
-2.68437e-06
4.05844e-05
-1.65009e-06
-1.59327e-06
4.08403e-05
5.98437e-05
0.000142925
4.88452e-05
5.10025e-05
4.46772e-05
1.68721e-05
4.34109e-05
3.96927e-06
4.33738e-05
-2.01647e-07
4.34515e-05
-2.66312e-07
4.36719e-05
-1.68913e-06
4.38754e-05
-2.10006e-06
4.39557e-05
-1.31438e-06
4.40457e-05
-7.99744e-07
4.41391e-05
-3.86366e-07
4.41668e-05
-8.07867e-08
4.42151e-05
1.94956e-07
4.4708e-05
-4.2093e-07
4.53453e-05
-1.31694e-06
4.56268e-05
-1.13594e-06
4.57169e-05
-5.0365e-07
4.57101e-05
-6.132e-08
4.5729e-05
1.89835e-07
4.58184e-05
1.55511e-07
4.59303e-05
-5.6263e-08
4.60025e-05
-3.03226e-07
4.61505e-05
-1.2915e-06
4.65419e-05
-2.75018e-06
4.70696e-05
-3.62358e-06
4.76196e-05
-3.96394e-06
4.81367e-05
-3.6006e-06
4.86034e-05
-3.046e-06
4.90345e-05
-2.88582e-06
4.94339e-05
-2.8763e-06
4.98191e-05
-2.84469e-06
5.01985e-05
-3.07084e-06
5.05581e-05
-2.54375e-06
5.05097e-05
-1.25351e-07
5.02128e-05
1.18448e-06
5.00265e-05
9.97009e-07
4.9879e-05
9.3164e-07
4.97657e-05
6.07351e-07
4.98933e-05
-8.27855e-07
5.04422e-05
-3.49113e-06
5.11907e-05
-4.84908e-06
5.19444e-05
-4.80336e-06
5.25499e-05
-4.11325e-06
5.30322e-05
-3.31531e-06
5.32911e-05
-1.69618e-06
5.35574e-05
-1.83366e-06
5.35645e-05
8.42438e-07
5.29513e-05
5.46721e-06
5.20225e-05
6.54715e-06
5.11699e-05
5.03489e-06
5.07836e-05
1.65524e-06
5.07053e-05
8.56795e-08
5.06342e-05
4.13466e-08
5.04863e-05
3.22318e-07
5.0309e-05
-1.6622e-07
5.01156e-05
-1.70956e-08
4.99007e-05
9.16433e-07
4.96647e-05
1.18742e-06
4.94109e-05
1.28608e-06
4.91491e-05
1.30416e-06
4.88948e-05
1.40981e-06
4.86858e-05
1.55206e-06
4.85441e-05
1.31417e-06
4.84906e-05
5.14609e-07
4.84834e-05
1.54107e-07
4.85211e-05
-1.73162e-07
4.85974e-05
-4.8823e-07
4.86989e-05
-7.60072e-07
4.88236e-05
-1.07797e-06
4.89573e-05
-1.27431e-06
4.90505e-05
-9.2246e-07
4.91134e-05
-1.51169e-07
4.91654e-05
2.52128e-07
4.91661e-05
2.65153e-07
4.91568e-05
4.14517e-07
4.91829e-05
1.62747e-07
4.92549e-05
-2.43088e-08
4.93954e-05
-1.28691e-06
4.96696e-05
-1.83803e-06
4.99132e-05
-1.6429e-06
5.00818e-05
-2.07382e-06
5.02804e-05
-1.79091e-06
5.03595e-05
-2.18847e-06
5.0614e-05
-2.17369e-06
5.08863e-05
-2.3936e-06
5.10761e-05
-2.87418e-06
5.13465e-05
-1.92043e-06
-1.92992e-06
5.16831e-05
7.85913e-05
0.000164347
6.57139e-05
6.38798e-05
6.03175e-05
2.22685e-05
5.82188e-05
6.06802e-06
5.76484e-05
3.68728e-07
5.74797e-05
-9.75804e-08
5.74748e-05
-1.68428e-06
5.75066e-05
-2.13186e-06
5.7478e-05
-1.28575e-06
5.74779e-05
-7.99597e-07
5.75373e-05
-4.45857e-07
5.75779e-05
-1.21347e-07
5.76202e-05
1.52633e-07
5.82103e-05
-1.01098e-06
5.90225e-05
-2.12914e-06
5.93831e-05
-1.49653e-06
5.94858e-05
-6.06429e-07
5.94716e-05
-4.70966e-08
5.94823e-05
1.79153e-07
5.95511e-05
8.6738e-08
5.9612e-05
-1.17165e-07
5.96036e-05
-2.94869e-07
5.96296e-05
-1.31744e-06
5.98762e-05
-2.99686e-06
6.03015e-05
-4.04888e-06
6.07935e-05
-4.45588e-06
6.12778e-05
-4.08489e-06
6.17252e-05
-3.49339e-06
6.21424e-05
-3.30302e-06
6.25282e-05
-3.26216e-06
6.29006e-05
-3.21705e-06
6.32576e-05
-3.42787e-06
6.36172e-05
-2.90328e-06
6.36008e-05
-1.08977e-07
6.33162e-05
1.46908e-06
6.31175e-05
1.19572e-06
6.29723e-05
1.0768e-06
6.28534e-05
7.26308e-07
6.29334e-05
-9.0787e-07
6.34243e-05
-3.98208e-06
6.41508e-05
-5.57556e-06
6.49167e-05
-5.56931e-06
6.55452e-05
-4.74171e-06
6.60739e-05
-3.844e-06
6.64027e-05
-2.02496e-06
6.67103e-05
-2.14129e-06
6.68185e-05
7.34261e-07
6.63957e-05
5.88995e-06
6.56103e-05
7.33261e-06
6.4769e-05
5.87619e-06
6.42811e-05
2.14317e-06
6.41014e-05
2.65381e-07
6.39846e-05
1.58077e-07
6.38145e-05
4.92463e-07
6.36079e-05
4.03594e-08
6.33958e-05
1.95004e-07
6.31801e-05
1.13216e-06
6.29509e-05
1.41659e-06
6.27085e-05
1.52848e-06
6.24647e-05
1.54793e-06
6.22306e-05
1.64391e-06
6.20444e-05
1.73824e-06
6.19282e-05
1.43044e-06
6.18872e-05
5.55575e-07
6.18834e-05
1.57948e-07
6.19125e-05
-2.02313e-07
6.19712e-05
-5.46865e-07
6.20499e-05
-8.38823e-07
6.21456e-05
-1.17368e-06
6.22404e-05
-1.36907e-06
6.23168e-05
-9.98873e-07
6.24027e-05
-2.3704e-07
6.25089e-05
1.45839e-07
6.2587e-05
1.87102e-07
6.26751e-05
3.26406e-07
6.27777e-05
6.01521e-08
6.28944e-05
-1.41002e-07
6.29939e-05
-1.38643e-06
6.32178e-05
-2.06191e-06
6.34587e-05
-1.88385e-06
6.36004e-05
-2.21551e-06
6.3841e-05
-2.03146e-06
6.39798e-05
-2.32732e-06
6.42181e-05
-2.41193e-06
6.44076e-05
-2.58314e-06
6.45477e-05
-3.01425e-06
6.47977e-05
-2.17043e-06
-2.28394e-06
6.51517e-05
0.000102034
0.00018499
8.72948e-05
7.86187e-05
8.01865e-05
2.93768e-05
7.68852e-05
9.36926e-06
7.55536e-05
1.70039e-06
7.49883e-05
4.67689e-07
7.46582e-05
-1.35422e-06
7.44432e-05
-1.91678e-06
7.42426e-05
-1.08524e-06
7.40905e-05
-6.47449e-07
7.4062e-05
-4.17313e-07
7.4091e-05
-1.50428e-07
7.40982e-05
1.45501e-07
7.47298e-05
-1.64259e-06
7.56833e-05
-3.08261e-06
7.61238e-05
-1.93705e-06
7.62568e-05
-7.39466e-07
7.62383e-05
-2.85641e-08
7.62033e-05
2.14146e-07
7.61995e-05
9.04977e-08
7.61822e-05
-9.98565e-08
7.60979e-05
-2.10567e-07
7.60262e-05
-1.24574e-06
7.61518e-05
-3.12242e-06
7.64848e-05
-4.38192e-06
7.69264e-05
-4.8975e-06
7.73872e-05
-4.5457e-06
7.78256e-05
-3.93174e-06
7.82404e-05
-3.71787e-06
7.86242e-05
-3.64591e-06
7.89944e-05
-3.58729e-06
7.93359e-05
-3.7694e-06
7.96919e-05
-3.25926e-06
7.97223e-05
-1.39383e-07
7.94713e-05
1.72006e-06
7.92698e-05
1.39721e-06
7.91332e-05
1.2134e-06
7.90166e-05
8.42915e-07
7.90524e-05
-9.43595e-07
7.94684e-05
-4.39811e-06
8.01436e-05
-6.25075e-06
8.08996e-05
-6.32528e-06
8.15476e-05
-5.38978e-06
8.21221e-05
-4.41841e-06
8.25221e-05
-2.42503e-06
8.28685e-05
-2.48768e-06
8.30724e-05
5.30394e-07
8.28475e-05
6.11482e-06
8.22462e-05
7.93392e-06
8.14754e-05
6.64703e-06
8.09198e-05
2.69877e-06
8.06482e-05
5.36947e-07
8.04829e-05
3.2333e-07
8.0286e-05
6.89451e-07
8.00525e-05
2.73833e-07
7.98221e-05
4.25356e-07
7.96009e-05
1.35335e-06
7.93773e-05
1.64024e-06
7.91495e-05
1.75624e-06
7.89296e-05
1.76787e-06
7.87247e-05
1.84884e-06
7.8568e-05
1.89488e-06
7.84821e-05
1.51637e-06
7.84574e-05
5.80265e-07
7.84584e-05
1.56939e-07
7.84802e-05
-2.24116e-07
7.8522e-05
-5.88678e-07
7.85791e-05
-8.95887e-07
7.86458e-05
-1.24044e-06
7.87029e-05
-1.42609e-06
7.87671e-05
-1.06309e-06
7.88764e-05
-3.4639e-07
7.90219e-05
3.35514e-10
7.91692e-05
3.98922e-08
7.93442e-05
1.51346e-07
7.95292e-05
-1.24882e-07
7.97282e-05
-3.39968e-07
7.98481e-05
-1.50628e-06
8.00302e-05
-2.244e-06
8.02479e-05
-2.10158e-06
8.03812e-05
-2.34879e-06
8.06493e-05
-2.2996e-06
8.08514e-05
-2.52939e-06
8.10896e-05
-2.65015e-06
8.12423e-05
-2.73588e-06
8.14041e-05
-3.17598e-06
8.17177e-05
-2.48404e-06
-2.6737e-06
8.21074e-05
0.000130892
0.000203509
0.000114545
9.49659e-05
0.000105278
3.86438e-05
0.000100366
1.42813e-05
9.80323e-05
4.03402e-06
9.68894e-05
1.6106e-06
9.61299e-05
-5.94675e-07
9.55717e-05
-1.35862e-06
9.50979e-05
-6.11455e-07
9.4703e-05
-2.52577e-07
9.45133e-05
-2.2755e-07
9.44827e-05
-1.1988e-07
9.44164e-05
2.11885e-07
9.501e-05
-2.23627e-06
9.60299e-05
-4.10244e-06
9.65386e-05
-2.44578e-06
9.67145e-05
-9.15337e-07
9.67004e-05
-1.45222e-08
9.662e-05
2.94606e-07