/*--------------------------------*- C++ -*----------------------------------*\
  =========                 |
  \\      /  F ield         | OpenFOAM: The Open Source CFD Toolbox
   \\    /   O peration     | Website:  https://openfoam.org
    \\  /    A nd           | Version:  8
     \\/     M anipulation  |
\*---------------------------------------------------------------------------*/
FoamFile
{
    version     2.0;
    format      ascii;
    class       volVectorField;
    location    "817";
    object      U;
}
// * * * * * * * * * * * * * * * * * * * * * * * * * * * * * * * * * * * * * //

dimensions      [0 1 -1 0 0 0 0];

internalField   nonuniform List<vector> 
20540
(
(34.7443 -0.000308267 0)
(52.9524 0.0039432 0)
(34.7498 -0.000989107 0)
(52.9375 0.0113247 0)
(34.7647 -0.00181049 0)
(52.8999 0.0199963 0)
(34.7952 -0.00279478 0)
(52.8288 0.029647 0)
(34.8511 -0.00396986 0)
(52.7107 0.040228 0)
(34.9461 -0.00536759 0)
(52.5293 0.0516238 0)
(35.0973 -0.00700511 0)
(52.2662 0.0636114 0)
(35.3236 -0.00888993 0)
(51.9033 0.0758135 0)
(35.647 -0.0110252 0)
(51.4245 0.0876483 0)
(36.0945 -0.0133719 0)
(50.8088 0.0984767 0)
(36.707 -0.0158596 0)
(50.0176 0.107747 0)
(37.5425 -0.0183761 0)
(49.0067 0.114753 0)
(38.643 -0.0206638 0)
(47.7783 0.118588 0)
(39.9837 -0.02233 0)
(46.4214 0.118687 0)
(41.4652 -0.0229443 0)
(45.0826 0.115087 0)
(42.8945 -0.0221284 0)
(43.9786 0.108505 0)
(43.9607 -0.0200237 0)
(43.4472 0.101401 0)
(44.3812 -0.0181822 0)
(43.6694 0.0978698 0)
(44.2864 -0.0177969 0)
(44.0912 0.0972529 0)
(44.1949 -0.017411 0)
(44.1724 0.0956066 0)
(44.2013 -0.0167598 0)
(44.1525 0.093086 0)
(44.2047 -0.0160098 0)
(44.1533 0.0899854 0)
(44.2041 -0.0150791 0)
(44.1574 0.0861904 0)
(44.2043 -0.0140308 0)
(44.1614 0.0816719 0)
(44.2046 -0.0128496 0)
(44.166 0.07636 0)
(44.2048 -0.0114911 0)
(44.1711 0.0700969 0)
(44.2051 -0.00995512 0)
(44.1767 0.0627143 0)
(44.2053 -0.00827169 0)
(44.1827 0.0540492 0)
(44.2056 -0.0064476 0)
(44.1888 0.043882 0)
(44.2059 -0.00447383 0)
(44.1945 0.0318971 0)
(44.206 -0.00254836 0)
(44.1986 0.0192681 0)
(44.2061 -0.000809786 0)
(44.2007 0.00707932 0)
(44.2061 0.000881719 0)
(44.2008 -0.00504052 0)
(44.206 0.002622 0)
(44.1991 -0.0172552 0)
(44.2059 0.00450976 0)
(44.1954 -0.0297697 0)
(44.2056 0.00641833 0)
(44.1902 -0.0415491 0)
(44.2054 0.00818027 0)
(44.1846 -0.0516122 0)
(44.2051 0.00983016 0)
(44.179 -0.0602463 0)
(44.2048 0.0113338 0)
(44.1736 -0.0676519 0)
(44.2046 0.0126538 0)
(44.1687 -0.073987 0)
(44.2044 0.0138156 0)
(44.1643 -0.0793735 0)
(44.2042 0.0148461 0)
(44.1604 -0.0839473 0)
(44.2043 0.0157191 0)
(44.1567 -0.0878183 0)
(44.2029 0.0164202 0)
(44.1543 -0.0910239 0)
(44.1968 0.0170487 0)
(44.1606 -0.093638 0)
(44.2194 0.0176109 0)
(44.1495 -0.0956164 0)
(44.367 0.0176928 0)
(44.0029 -0.0965746 0)
(44.4261 0.0182208 0)
(43.7004 -0.097928 0)
(43.9245 0.0198331 0)
(43.6099 -0.101929 0)
(42.8871 0.0213714 0)
(44.0241 -0.107959 0)
(41.525 0.0220799 0)
(44.9342 -0.113983 0)
(40.0244 0.0217492 0)
(46.2093 -0.118072 0)
(38.552 0.0204806 0)
(47.658 -0.118805 0)
(37.2221 0.0185435 0)
(49.0802 -0.115681 0)
(36.0892 0.0162273 0)
(50.3433 -0.109085 0)
(35.1761 0.0137949 0)
(51.3903 -0.0998042 0)
(34.4781 0.0114383 0)
(52.2135 -0.0887219 0)
(33.9686 0.00926623 0)
(52.8326 -0.0766574 0)
(33.6114 0.00732962 0)
(53.2797 -0.064301 0)
(33.3703 0.00564039 0)
(53.5899 -0.0521871 0)
(33.2146 0.00418857 0)
(53.7962 -0.0406827 0)
(33.1193 0.00295656 0)
(53.9268 -0.0300044 0)
(33.0653 0.00192029 0)
(54.0037 -0.0202535 0)
(33.0382 0.00105219 0)
(54.0438 -0.0114842 0)
(33.028 0.00032868 0)
(54.0595 -0.00398635 0)
(14.0664 0.0154381 0)
(8.00442 0.00175229 0)
(6.31877 0.000462364 0)
(5.90407 0.000132241 0)
(5.51739 5.09794e-05 0)
(5.29545 4.19181e-05 0)
(5.13309 -1.40934e-05 0)
(4.99338 -6.03614e-05 0)
(4.95272 -4.17353e-05 0)
(4.93273 -6.9797e-06 0)
(4.84041 1.9362e-05 0)
(4.71926 1.72234e-05 0)
(4.65576 5.8143e-05 0)
(4.35985 0.000138032 0)
(3.77408 2.8933e-05 0)
(3.93876 -5.07684e-05 0)
(4.08212 -3.94834e-05 0)
(4.18632 -2.19293e-05 0)
(4.25137 1.6492e-06 0)
(4.24723 1.44157e-05 0)
(4.26812 2.18543e-05 0)
(4.328 5.5051e-06 0)
(4.38999 -1.01331e-05 0)
(4.26869 -1.59229e-05 0)
(4.0955 -6.59437e-05 0)
(3.94125 -0.000123887 0)
(3.82652 -0.000110128 0)
(3.76063 -5.04195e-05 0)
(3.68626 -2.69721e-05 0)
(3.61297 -2.37021e-05 0)
(3.53177 -1.41064e-05 0)
(3.43559 -1.95942e-05 0)
(3.37141 -6.86881e-05 0)
(3.72327 -0.000128932 0)
(4.44759 -0.000161964 0)
(4.40048 2.61093e-05 0)
(4.39845 2.43152e-05 0)
(4.40108 3.24434e-05 0)
(4.27107 0.000259209 0)
(3.44857 0.000287082 0)
(2.66625 0.000343456 0)
(2.26861 0.000334371 0)
(2.23897 5.64481e-05 0)
(2.37161 -7.44381e-05 0)
(2.54851 -9.28414e-05 0)
(2.65925 -0.00011843 0)
(2.853 -5.4046e-06 0)
(4.8761 -0.00135291 0)
(5.66583 -0.000240175 0)
(5.96748 0.000558383 0)
(5.18185 0.000571945 0)
(4.53008 0.000145917 0)
(4.57049 -5.36041e-05 0)
(4.90151 -0.000109439 0)
(5.07648 -0.000232731 0)
(5.16682 -0.000462027 0)
(5.51339 -0.000408045 0)
(5.65938 -0.000181411 0)
(5.81031 -0.000152168 0)
(5.96047 -0.000188607 0)
(6.13828 -1.58142e-05 0)
(6.26486 0.000401135 0)
(6.22615 0.000507934 0)
(6.11651 0.000367852 0)
(5.98076 0.000295585 0)
(5.83813 0.000184003 0)
(5.68184 0.000122506 0)
(5.50573 8.57297e-05 0)
(5.29639 -2.43015e-05 0)
(5.17251 -0.000260605 0)
(5.64462 -0.00128491 0)
(6.2513 -0.00090219 0)
(6.49949 0.000110297 0)
(6.7595 -0.00111221 0)
(7.02706 -0.000818682 0)
(6.75431 0.000815888 0)
(6.2244 0.00466959 0)
(4.69206 0.00317562 0)
(3.87262 0.00279462 0)
(5.44934 -0.00628705 0)
(4.79932 -0.00375111 0)
(4.93611 -0.00299258 0)
(5.12412 -0.00163777 0)
(4.24406 0.000227382 0)
(4.03924 0.00588311 0)
(3.49034 0.0445119 0)
(8.61562 -0.0421342 0)
(9.53069 -0.0580948 0)
(16.4342 0.0168233 0)
(9.64507 0.00335031 0)
(7.75499 0.000941084 0)
(7.28947 0.000360083 0)
(6.99814 0.000274019 0)
(6.80885 0.000179626 0)
(6.68553 0.000125394 0)
(6.71374 5.90572e-05 0)
(6.77044 9.68627e-06 0)
(6.82026 5.07887e-05 0)
(6.75431 0.000113458 0)
(6.68564 0.000101501 0)
(6.63532 0.000217188 0)
(6.38874 0.000537435 0)
(5.95525 0.000253262 0)
(6.09905 -0.00020553 0)
(6.21493 -0.000168456 0)
(6.2932 -0.00011494 0)
(6.32636 -3.53595e-05 0)
(6.30347 -3.63196e-06 0)
(6.29777 -4.5689e-05 0)
(6.29328 -8.42177e-05 0)
(6.33709 3.92528e-05 0)
(6.31265 0.000209735 0)
(6.30915 0.000185921 0)
(6.44075 7.6204e-05 0)
(6.66068 1.18518e-05 0)
(6.80901 2.7449e-05 0)
(6.90605 4.61991e-05 0)
(7.02372 4.48861e-05 0)
(7.14737 6.62917e-05 0)
(7.26439 1.93877e-05 0)
(7.47658 -0.000424453 0)
(7.70109 -0.00121618 0)
(7.98013 -0.000721129 0)
(7.93077 8.64616e-05 0)
(7.88201 3.44393e-05 0)
(7.84513 0.000177898 0)
(7.79273 0.00120873 0)
(7.53033 0.00201707 0)
(7.48224 0.00160348 0)
(7.28238 0.000928315 0)
(7.18679 -7.97751e-05 0)
(7.61141 -0.00103658 0)
(8.17788 -0.00111287 0)
(8.53525 -0.000880111 0)
(8.89891 -0.00396549 0)
(9.39829 -0.00481972 0)
(9.66281 -0.00188343 0)
(9.3973 0.00148294 0)
(8.84903 0.00323033 0)
(8.53589 0.00140369 0)
(8.50905 -0.000787604 0)
(8.63735 -0.00110999 0)
(8.67195 -0.000853905 0)
(8.97725 -0.00154458 0)
(9.25615 -0.00152349 0)
(9.35552 -0.000876961 0)
(9.40382 -0.00087582 0)
(9.46537 -0.000991026 0)
(9.53048 -0.000835679 0)
(9.49416 6.19052e-05 0)
(9.29613 0.000917421 0)
(9.17392 0.00138705 0)
(9.0688 0.0016583 0)
(8.99404 0.00173495 0)
(8.93427 0.00191867 0)
(8.89143 0.0022198 0)
(8.8622 0.00184581 0)
(8.90339 -0.00275645 0)
(9.13256 -0.00837562 0)
(9.5163 -0.00672564 0)
(9.53792 -0.00394765 0)
(9.6494 -0.00500977 0)
(9.86436 -0.000245289 0)
(9.74028 0.00782043 0)
(9.49352 0.0210484 0)
(8.69893 0.0263372 0)
(8.27762 -0.00809748 0)
(8.78531 -0.0129832 0)
(9.22942 0.00223643 0)
(9.4262 -0.00659543 0)
(9.8498 -0.000562004 0)
(10.6935 0.00494849 0)
(10.8685 0.00485143 0)
(11.3609 -0.0771232 0)
(12.139 -0.084136 0)
(12.9034 -0.0649067 0)
(18.4186 0.0288222 0)
(11.0899 0.00603151 0)
(9.02572 0.00169997 0)
(8.52059 0.000597693 0)
(8.31568 0.000419111 0)
(8.15497 0.000279592 0)
(8.0675 0.000128128 0)
(8.23864 -1.47463e-05 0)
(8.3764 -6.02094e-05 0)
(8.48937 4.22028e-05 0)
(8.44771 0.000157415 0)
(8.42835 0.000141385 0)
(8.39164 0.000348279 0)
(8.18553 0.000835824 0)
(7.88555 0.000369663 0)
(8.011 -0.000333503 0)
(8.10149 -0.000263227 0)
(8.15657 -0.00016446 0)
(8.16151 -2.96077e-05 0)
(8.12479 2.09501e-05 0)
(8.102 -2.54955e-05 0)
(8.06078 -9.78548e-05 0)
(8.09309 2.8688e-06 0)
(8.15979 0.000159285 0)
(8.30072 -3.21806e-05 0)
(8.66254 -0.000359438 0)
(9.11321 -0.000429536 0)
(9.41294 -0.000296338 0)
(9.65045 -0.000270019 0)
(9.92439 -0.000320478 0)
(10.2143 -0.000319786 0)
(10.5033 -0.000499899 0)
(10.93 -0.000950269 0)
(11.0592 -0.00154416 0)
(10.9945 -0.00079746 0)
(10.9339 0.000228277 0)
(10.8448 0.000172882 0)
(10.7773 0.000273776 0)
(10.7741 0.00134954 0)
(10.9358 0.00177776 0)
(11.5096 0.000998394 0)
(12.0429 0.000146686 0)
(12.4479 -0.00139484 0)
(12.9817 -0.00264032 0)
(13.5497 -0.00236261 0)
(13.7914 -0.00205123 0)
(14.1755 -0.00455462 0)
(13.2502 -0.00462457 0)
(12.9244 -0.000848268 0)
(12.2005 0.00329229 0)
(11.8422 0.00453719 0)
(11.7692 0.00191716 0)
(11.7092 -0.000849198 0)
(11.7133 -0.00128607 0)
(11.6784 -0.00180188 0)
(12.1328 -0.00304484 0)
(12.299 -0.00223474 0)
(12.3235 -0.00104025 0)
(12.2806 -0.000914532 0)
(12.2486 -0.00105229 0)
(12.2079 -0.000604948 0)
(12.0664 0.0010385 0)
(11.788 0.00210953 0)
(11.656 0.00232525 0)
(11.5753 0.00239836 0)
(11.5452 0.0021808 0)
(11.5479 0.00209607 0)
(11.591 0.00206716 0)
(11.677 0.00104439 0)
(11.8343 -0.00458148 0)
(11.9511 -0.0116486 0)
(12.1545 -0.00841812 0)
(12.0383 -0.00403676 0)
(12.0451 -0.00677922 0)
(12.1659 -0.000928007 0)
(12.1308 0.00978955 0)
(12.0759 0.0275418 0)
(11.7951 0.0326229 0)
(11.9721 -0.00740737 0)
(11.6787 -0.021164 0)
(12.5673 -0.00879118 0)
(12.8397 -0.0143944 0)
(13.211 -0.0190729 0)
(14.5569 -0.0130457 0)
(14.7624 -0.0143666 0)
(16.1806 -0.0800522 0)
(15.0948 -0.0942404 0)
(15.324 -0.0944986 0)
(20.6088 0.0457685 0)
(12.7714 0.010114 0)
(10.5076 0.00286278 0)
(9.9573 0.000906061 0)
(9.84961 0.000564398 0)
(9.7182 0.000386582 0)
(9.6697 3.89618e-05 0)
(9.97535 -0.000237309 0)
(10.1911 -0.000239709 0)
(10.3688 -2.34599e-05 0)
(10.3552 0.000170993 0)
(10.3833 0.000156304 0)
(10.3605 0.000493927 0)
(10.1835 0.00113121 0)
(9.98206 0.000451425 0)
(10.0991 -0.000472805 0)
(10.1708 -0.000353717 0)
(10.2078 -0.000191588 0)
(10.1896 9.98074e-06 0)
(10.1421 8.01521e-05 0)
(10.1047 4.493e-05 0)
(10.0533 -8.00556e-05 0)
(10.0836 -0.000132413 0)
(10.2509 -0.000149566 0)
(10.5235 -0.000680941 0)
(11.0434 -0.00135099 0)
(11.6105 -0.00135075 0)
(12.0045 -0.00100127 0)
(12.3421 -0.000981815 0)
(12.7248 -0.0011302 0)
(13.1251 -0.00118065 0)
(13.5239 -0.00158427 0)
(14.0749 -0.00174431 0)
(14.1987 -0.00147998 0)
(14.0007 -0.000496787 0)
(13.9149 0.00050356 0)
(13.7853 0.000465828 0)
(13.6924 0.00038431 0)
(13.6998 0.000885729 0)
(14.0402 2.27761e-05 0)
(14.8688 -0.00156455 0)
(15.7102 -0.00212154 0)
(16.5247 -0.00351329 0)
(17.0502 -0.00490527 0)
(17.5075 -0.0039502 0)
(17.5844 -0.00345348 0)
(18.077 -0.0025054 0)
(16.778 -0.000408892 0)
(15.932 0.00279007 0)
(14.9182 0.00615728 0)
(14.6668 0.00521859 0)
(14.7145 0.00203932 0)
(14.6584 -0.000625267 0)
(14.6366 -0.00111681 0)
(14.6 -0.00318418 0)
(15.0993 -0.0048158 0)
(15.1114 -0.00240815 0)
(15.0452 -0.000668683 0)
(14.9266 -0.000352997 0)
(14.8115 -0.000477839 0)
(14.6904 0.000380279 0)
(14.4906 0.00288137 0)
(14.198 0.00392102 0)
(14.0637 0.00339119 0)
(14.0066 0.00290623 0)
(14.0025 0.00208904 0)
(14.039 0.001367 0)
(14.1285 0.000526365 0)
(14.2728 -0.00157936 0)
(14.4931 -0.00706188 0)
(14.6116 -0.0136428 0)
(14.6864 -0.00809137 0)
(14.5212 -0.00203366 0)
(14.4488 -0.00696267 0)
(14.4536 -0.00166861 0)
(14.4612 0.00948091 0)
(14.5261 0.028465 0)
(14.5292 0.0281019 0)
(15.1437 -0.00563925 0)
(14.595 -0.0275687 0)
(15.3978 -0.0264829 0)
(15.739 -0.0247107 0)
(16.0169 -0.0461289 0)
(17.2264 -0.0381848 0)
(17.3169 -0.0424963 0)
(18.6458 -0.0794551 0)
(17.8351 -0.0748433 0)
(17.5547 -0.109669 0)
(22.993 0.0644629 0)
(14.7132 0.0153022 0)
(12.2245 0.00438252 0)
(11.6074 0.00123996 0)
(11.6139 0.000658767 0)
(11.5198 0.000471695 0)
(11.5149 -0.000170119 0)
(11.9333 -0.000629796 0)
(12.2152 -0.000542927 0)
(12.4437 -0.000166325 0)
(12.467 0.000133456 0)
(12.5285 0.000135335 0)
(12.5158 0.000628492 0)
(12.3779 0.0013953 0)
(12.2399 0.000497761 0)
(12.359 -0.000621732 0)
(12.4197 -0.000433665 0)
(12.4449 -0.000192109 0)
(12.4127 8.59332e-05 0)
(12.3552 0.000179785 0)
(12.2996 0.000150839 0)
(12.2523 -5.56562e-05 0)
(12.2877 -0.000409802 0)
(12.5559 -0.000787712 0)
(12.9539 -0.00176212 0)
(13.5555 -0.00278538 0)
(14.1644 -0.00264638 0)
(14.6169 -0.00204862 0)
(15.0183 -0.00206658 0)
(15.4696 -0.00235724 0)
(15.9366 -0.00248138 0)
(16.4028 -0.00316223 0)
(17.0067 -0.00287472 0)
(17.1673 -0.00136214 0)
(16.9769 4.41997e-06 0)
(16.8696 0.000932512 0)
(16.7091 0.000931818 0)
(16.5921 0.000579803 0)
(16.583 0.000124063 0)
(16.9569 -0.00254761 0)
(17.8332 -0.00528411 0)
(18.711 -0.00595506 0)
(19.5637 -0.00664155 0)
(20.0951 -0.00715066 0)
(20.5301 -0.0050884 0)
(20.5525 -0.00485863 0)
(21.0886 -0.000120264 0)
(19.8152 0.00621941 0)
(18.674 0.00879215 0)
(17.5589 0.00998916 0)
(17.3329 0.00563933 0)
(17.4259 0.00189661 0)
(17.4046 -0.000448309 0)
(17.4018 -0.000962258 0)
(17.3849 -0.00473414 0)
(17.7803 -0.0062225 0)
(17.6567 -0.00175781 0)
(17.5149 0.000357958 0)
(17.3438 0.000864276 0)
(17.1744 0.000793549 0)
(17.0037 0.00203966 0)
(16.776 0.00524589 0)
(16.5038 0.00607238 0)
(16.3743 0.00452052 0)
(16.3383 0.00317682 0)
(16.3521 0.00157901 0)
(16.4079 -4.47902e-05 0)
(16.5226 -0.00200353 0)
(16.6905 -0.00552275 0)
(16.9346 -0.0107666 0)
(17.086 -0.0151954 0)
(17.0815 -0.0064709 0)
(16.9351 0.0012159 0)
(16.8122 -0.00507422 0)
(16.7293 -0.00136466 0)
(16.7347 0.00772552 0)
(16.8584 0.0252667 0)
(16.9971 0.0154635 0)
(17.7535 -0.00915737 0)
(17.3652 -0.0312683 0)
(17.9171 -0.0441995 0)
(18.2573 -0.0362358 0)
(18.5058 -0.0721875 0)
(19.3698 -0.0606618 0)
(19.416 -0.0690316 0)
(20.3553 -0.0916443 0)
(20.144 -0.0536542 0)
(19.7527 -0.107947 0)
(25.5446 0.0851958 0)
(16.9242 0.0218984 0)
(14.2014 0.00639358 0)
(13.4764 0.00161082 0)
(13.6068 0.000653739 0)
(13.5708 0.000497573 0)
(13.6234 -0.000529797 0)
(14.1117 -0.00120126 0)
(14.4163 -0.000964248 0)
(14.6584 -0.000394315 0)
(14.7197 3.51769e-05 0)
(14.7948 8.18921e-05 0)
(14.7852 0.000723041 0)
(14.7231 0.00158985 0)
(14.6515 0.000485171 0)
(14.7835 -0.000801596 0)
(14.8415 -0.000514513 0)
(14.8622 -0.000177517 0)
(14.8282 0.000202867 0)
(14.7584 0.000346392 0)
(14.6837 0.000295133 0)
(14.6498 -5.05892e-05 0)
(14.6962 -0.00088792 0)
(15.0491 -0.00184953 0)
(15.5544 -0.00329723 0)
(16.1789 -0.00461218 0)
(16.7938 -0.00431533 0)
(17.2788 -0.00347387 0)
(17.7156 -0.00353529 0)
(18.1896 -0.00397973 0)
(18.6728 -0.00418926 0)
(19.1537 -0.0051601 0)
(19.7317 -0.00436335 0)
(19.9363 -0.0013304 0)
(19.7595 0.000632834 0)
(19.6486 0.00151906 0)
(19.4864 0.00157473 0)
(19.3572 0.000915072 0)
(19.3222 -0.000761504 0)
(19.681 -0.00567068 0)
(20.4995 -0.00969357 0)
(21.2906 -0.0104424 0)
(22.0695 -0.0103605 0)
(22.5699 -0.00979092 0)
(22.9633 -0.00622357 0)
(22.9412 -0.00642314 0)
(23.4329 0.00205601 0)
(22.3613 0.0141267 0)
(21.1808 0.0167764 0)
(20.0985 0.0148112 0)
(19.8414 0.00611764 0)
(19.9322 0.00150147 0)
(19.9552 -0.000459807 0)
(19.9604 -0.000864578 0)
(19.9383 -0.00596464 0)
(20.1444 -0.00680275 0)
(19.9568 -0.000237555 0)
(19.7727 0.00208942 0)
(19.5732 0.00275683 0)
(19.3754 0.00275945 0)
(19.1762 0.00432411 0)
(18.9433 0.00799271 0)
(18.7041 0.00845429 0)
(18.5797 0.00571765 0)
(18.5537 0.00325735 0)
(18.5778 0.000732501 0)
(18.6431 -0.00202128 0)
(18.7684 -0.00529468 0)
(18.9357 -0.0103931 0)
(19.1721 -0.0157347 0)
(19.3415 -0.016955 0)
(19.3111 -0.00437824 0)
(19.2076 0.00482326 0)
(19.091 -0.001554 0)
(18.9686 0.00079148 0)
(18.9219 0.00589799 0)
(19.0501 0.019631 0)
(19.2287 -0.00168005 0)
(19.9314 -0.0190376 0)
(19.8235 -0.0357363 0)
(20.181 -0.060041 0)
(20.458 -0.0488524 0)
(20.7023 -0.0938742 0)
(21.1989 -0.077984 0)
(21.2538 -0.0888081 0)
(21.778 -0.110258 0)
(22.0074 -0.0474801 0)
(21.7693 -0.0980326 0)
(28.2265 0.108505 0)
(19.3757 0.0302417 0)
(16.4611 0.00907771 0)
(15.5852 0.00206296 0)
(15.8153 0.000489285 0)
(15.8577 0.000404458 0)
(15.9843 -0.00106022 0)
(16.47 -0.00191267 0)
(16.7317 -0.00145341 0)
(16.9437 -0.000691117 0)
(17.0281 -0.000118674 0)
(17.1018 1.3698e-05 0)
(17.0892 0.000750189 0)
(17.1147 0.00160649 0)
(17.1757 0.000317972 0)
(17.3318 -0.0010476 0)
(17.3945 -0.000622061 0)
(17.4213 -0.00016859 0)
(17.3935 0.0003545 0)
(17.3188 0.000571892 0)
(17.2426 0.000441248 0)
(17.2381 -0.000104312 0)
(17.2973 -0.00160233 0)
(17.6976 -0.00340588 0)
(18.2614 -0.00531341 0)
(18.8597 -0.00680595 0)
(19.4459 -0.00635449 0)
(19.9278 -0.00528361 0)
(20.3647 -0.00535586 0)
(20.8004 -0.00590304 0)
(21.2336 -0.00618041 0)
(21.6611 -0.00738753 0)
(22.1429 -0.00609701 0)
(22.3691 -0.00133651 0)
(22.1447 0.00143649 0)
(22.0344 0.00222794 0)
(21.8866 0.00233953 0)
(21.767 0.00139096 0)
(21.7132 -0.00171574 0)
(22.0653 -0.00917192 0)
(22.7956 -0.0144802 0)
(23.4657 -0.0151942 0)
(24.1275 -0.0143607 0)
(24.5575 -0.0127131 0)
(24.9024 -0.00739835 0)
(24.8534 -0.00802119 0)
(25.2762 0.00402536 0)
(24.4525 0.0225602 0)
(23.4076 0.0259829 0)
(22.4216 0.0205318 0)
(22.1241 0.00692019 0)
(22.198 0.000887304 0)
(22.2448 -0.000606867 0)
(22.2256 -0.000612896 0)
(22.1686 -0.00637362 0)
(22.2116 -0.00637251 0)
(22.0243 0.00194945 0)
(21.8302 0.00445204 0)
(21.6242 0.00526712 0)
(21.4182 0.00537481 0)
(21.2083 0.0071761 0)
(20.9889 0.0110275 0)
(20.787 0.0109906 0)
(20.674 0.00702248 0)
(20.6483 0.00325224 0)
(20.6728 -0.000395231 0)
(20.7383 -0.00447431 0)
(20.8582 -0.00911243 0)
(21.0064 -0.0157576 0)
(21.2093 -0.0214961 0)
(21.3718 -0.0192246 0)
(21.3586 -0.00262002 0)
(21.2926 0.00806996 0)
(21.2191 0.00268265 0)
(21.097 0.00489403 0)
(20.9881 0.00523382 0)
(21.0863 0.0133338 0)
(21.2452 -0.0195872 0)
(21.8161 -0.0341524 0)
(21.9026 -0.0433843 0)
(22.1477 -0.073733 0)
(22.3713 -0.0616096 0)
(22.5657 -0.10908 0)
(22.7859 -0.0905594 0)
(22.8787 -0.10235 0)
(23.1212 -0.131844 0)
(23.5639 -0.0594277 0)
(23.4837 -0.0917344 0)
(30.9921 0.134472 0)
(22.0186 0.0405855 0)
(18.9966 0.0126209 0)
(17.9518 0.00268149 0)
(18.2123 0.000134173 0)
(18.3202 0.000156236 0)
(18.4895 -0.00172602 0)
(18.9033 -0.00267048 0)
(19.0841 -0.00192841 0)
(19.2414 -0.001021 0)
(19.3295 -0.000310612 0)
(19.3911 -4.57228e-05 0)
(19.3713 0.000703885 0)
(19.4444 0.00131765 0)
(19.6884 -0.000146763 0)
(19.8741 -0.00139344 0)
(19.9437 -0.000775064 0)
(19.9823 -0.000171893 0)
(19.9537 0.000499574 0)
(19.9099 0.000756607 0)
(19.8759 0.000472522 0)
(19.9263 -0.000290594 0)
(19.9894 -0.00251822 0)
(20.3639 -0.00534689 0)
(20.8937 -0.00767043 0)
(21.4113 -0.0092191 0)
(21.9122 -0.00860953 0)
(22.3344 -0.00731775 0)
(22.7188 -0.00733897 0)
(23.0779 -0.00790507 0)
(23.4244 -0.00821491 0)
(23.7656 -0.00957269 0)
(24.1299 -0.00789366 0)
(24.3474 -0.00123606 0)
(24.0769 0.0025104 0)
(23.9687 0.00301145 0)
(23.8351 0.00314299 0)
(23.7379 0.00194881 0)
(23.676 -0.00272573 0)
(24.007 -0.0128519 0)
(24.621 -0.0193205 0)
(25.1875 -0.0199713 0)
(25.7373 -0.0183904 0)
(26.0957 -0.0157253 0)
(26.4019 -0.00859015 0)
(26.3622 -0.0095955 0)
(26.7218 0.00559843 0)
(26.1197 0.0305668 0)
(25.2885 0.0354399 0)
(24.4269 0.0269874 0)
(24.1012 0.00831492 0)
(24.1408 0.000272405 0)
(24.1854 -0.000698396 0)
(24.1338 4.08072e-05 0)
(24.0476 -0.00582316 0)
(23.9975 -0.0050999 0)
(23.8375 0.0044439 0)
(23.6587 0.00721174 0)
(23.4679 0.00823016 0)
(23.2723 0.00850646 0)
(23.072 0.0104561 0)
(22.8781 0.014211 0)
(22.7154 0.0135615 0)
(22.6238 0.00843524 0)
(22.5978 0.0032865 0)
(22.6168 -0.00166499 0)
(22.6753 -0.00717545 0)
(22.7754 -0.013083 0)
(22.8928 -0.0210921 0)
(23.0494 -0.0273997 0)
(23.186 -0.0220618 0)
(23.1998 -0.00184098 0)
(23.1718 0.0103309 0)
(23.1316 0.00654982 0)
(23.0342 0.0100425 0)
(22.9201 0.00616885 0)
(22.9782 0.00786345 0)
(23.0882 -0.0356655 0)
(23.4984 -0.0515687 0)
(23.6623 -0.0536356 0)
(23.8264 -0.0856284 0)
(24.017 -0.0733853 0)
(24.1352 -0.118119 0)
(24.2009 -0.101152 0)
(24.3802 -0.114303 0)
(24.5101 -0.154074 0)
(24.9494 -0.082681 0)
(24.9676 -0.0962337 0)
(33.7714 0.162869 0)
(24.8238 0.0532273 0)
(21.7382 0.0171664 0)
(20.5455 0.00362545 0)
(20.7207 -0.000304053 0)
(20.8259 -0.000197107 0)
(20.9657 -0.00241447 0)
(21.2702 -0.00334904 0)
(21.3759 -0.00230898 0)
(21.4736 -0.00133562 0)
(21.5531 -0.000527966 0)
(21.6011 -9.62463e-05 0)
(21.5787 0.00060259 0)
(21.6558 0.000645688 0)
(22.0435 -0.00103033 0)
(22.2532 -0.00186694 0)
(22.3261 -0.000970591 0)
(22.3633 -0.000182551 0)
(22.33 0.000572746 0)
(22.3445 0.000772338 0)
(22.3701 0.000308619 0)
(22.4596 -0.000588906 0)
(22.5068 -0.00343108 0)
(22.7787 -0.00729274 0)
(23.1853 -0.0100123 0)
(23.588 -0.0115743 0)
(23.9768 -0.0108258 0)
(24.312 -0.00933843 0)
(24.6189 -0.00925512 0)
(24.9021 -0.00976719 0)
(25.1684 -0.0100884 0)
(25.4326 -0.0115426 0)
(25.701 -0.00964453 0)
(25.9021 -0.000999153 0)
(25.6326 0.00386291 0)
(25.532 0.00388301 0)
(25.4117 0.00395891 0)
(25.3391 0.00255245 0)
(25.2731 -0.00373105 0)
(25.5468 -0.0165466 0)
(26.0367 -0.0241332 0)
(26.5236 -0.0247553 0)
(26.9841 -0.0223856 0)
(27.2872 -0.0188234 0)
(27.5632 -0.00994386 0)
(27.5538 -0.0112599 0)
(27.8594 0.00657168 0)
(27.4514 0.0375883 0)
(26.8435 0.0445887 0)
(26.1211 0.034072 0)
(25.7791 0.0104742 0)
(25.7618 -2.67808e-05 0)
(25.7857 -0.000534192 0)
(25.7184 0.00113647 0)
(25.6242 -0.00452908 0)
(25.5362 -0.00331769 0)
(25.404 0.00698412 0)
(25.2541 0.0101236 0)
(25.0922 0.0114263 0)
(24.9209 0.011932 0)
(24.7471 0.0139613 0)
(24.5831 0.0173894 0)
(24.4578 0.0160153 0)
(24.3886 0.00986908 0)
(24.3656 0.00342933 0)
(24.379 -0.00287497 0)
(24.4245 -0.00977005 0)
(24.4987 -0.0167683 0)
(24.5832 -0.0258871 0)
(24.6959 -0.0328306 0)
(24.799 -0.0252972 0)
(24.827 -0.00234552 0)
(24.8361 0.0110718 0)
(24.8248 0.00929491 0)
(24.7623 0.0146946 0)
(24.7038 0.00776833 0)
(24.7311 0.00394178 0)
(24.7955 -0.0481093 0)
(25.0459 -0.0685331 0)
(25.2203 -0.0654235 0)
(25.3313 -0.0965936 0)
(25.4827 -0.0842794 0)
(25.5631 -0.122933 0)
(25.5696 -0.112411 0)
(25.8377 -0.12893 0)
(25.9248 -0.174676 0)
(26.2418 -0.107895 0)
(26.2649 -0.112124 0)
(36.4594 0.19318 0)
(27.7658 0.0685055 0)
(24.5896 0.0229524 0)
(23.2702 0.00521976 0)
(23.2094 -0.000508364 0)
(23.2283 -0.000477718 0)
(23.2916 -0.00295473 0)
(23.4626 -0.00384584 0)
(23.5118 -0.0025488 0)
(23.5487 -0.00157767 0)
(23.6076 -0.000745233 0)
(23.6492 -0.000155141 0)
(23.6382 0.000480803 0)
(23.699 -0.000407322 0)
(24.159 -0.00240315 0)
(24.3862 -0.00250608 0)
(24.4624 -0.0011995 0)
(24.4838 -0.000180666 0)
(24.4561 0.000559457 0)
(24.5026 0.000589322 0)
(24.552 -8.02104e-06 0)
(24.6221 -0.000865737 0)
(24.6301 -0.0040753 0)
(24.7779 -0.0088569 0)
(25.0471 -0.0120468 0)
(25.3424 -0.01369 0)
(25.6361 -0.0128609 0)
(25.8965 -0.0112289 0)
(26.1361 -0.011053 0)
(26.3584 -0.0114905 0)
(26.564 -0.0118128 0)
(26.7707 -0.0133185 0)
(26.9706 -0.0113401 0)
(27.1566 -0.000722653 0)
(26.9253 0.00536892 0)
(26.836 0.00484194 0)
(26.7271 0.00477645 0)
(26.6768 0.00318995 0)
(26.6054 -0.00460127 0)
(26.8082 -0.0200561 0)
(27.1911 -0.0289088 0)
(27.609 -0.0296529 0)
(27.998 -0.0264614 0)
(28.2596 -0.0221254 0)
(28.5147 -0.0116478 0)
(28.5395 -0.013158 0)
(28.7993 0.00687324 0)
(28.5553 0.0433812 0)
(28.1425 0.0530618 0)
(27.5647 0.0416012 0)
(27.2252 0.0135751 0)
(27.149 0.000325719 0)
(27.1399 -1.00482e-05 0)
(27.0726 0.00256744 0)
(26.9812 -0.00275225 0)
(26.8847 -0.00124252 0)
(26.7741 0.00949306 0)
(26.6535 0.0130174 0)
(26.5225 0.0146442 0)
(26.3819 0.0153912 0)
(26.2424 0.0174585 0)
(26.1093 0.0204124 0)
(26.0174 0.0182029 0)
(25.9671 0.0111671 0)
(25.9497 0.00361762 0)
(25.9589 -0.00391798 0)
(25.9893 -0.0120087 0)
(26.04 -0.0198812 0)
(26.0971 -0.0298874 0)
(26.1743 -0.0373613 0)
(26.243 -0.0284468 0)
(26.2734 -0.00401912 0)
(26.3059 0.0100492 0)
(26.3324 0.0102706 0)
(26.3094 0.0168302 0)
(26.3189 0.00797247 0)
(26.3385 0.000899482 0)
(26.3837 -0.0561709 0)
(26.5074 -0.0831085 0)
(26.6737 -0.0777106 0)
(26.7567 -0.106422 0)
(26.8643 -0.0953513 0)
(26.9628 -0.126064 0)
(26.9563 -0.125707 0)
(27.2243 -0.146631 0)
(27.2485 -0.191143 0)
(27.4796 -0.129768 0)
(27.4349 -0.134453 0)
(38.9234 0.224395 0)
(30.7735 0.0866906 0)
(27.4478 0.0304626 0)
(25.9649 0.00794128 0)
(25.5687 -4.69533e-05 0)
(25.4541 -0.000435744 0)
(25.4178 -0.00316502 0)
(25.4488 -0.00407383 0)
(25.4466 -0.00260796 0)
(25.4237 -0.00168234 0)
(25.4456 -0.00091624 0)
(25.4763 -0.000233614 0)
(25.482 0.000372865 0)
(25.5127 -0.00173371 0)
(25.9964 -0.00424189 0)
(26.2366 -0.00333877 0)
(26.3177 -0.00145843 0)
(26.3289 -0.000146574 0)
(26.3057 0.000524034 0)
(26.3374 0.000348974 0)
(26.3668 -0.000286898 0)
(26.3914 -0.000973865 0)
(26.3602 -0.00434547 0)
(26.4128 -0.00991729 0)
(26.5766 -0.0137061 0)
(26.7883 -0.0155738 0)
(27.0118 -0.0147417 0)
(27.2171 -0.0130152 0)
(27.408 -0.0127759 0)
(27.5867 -0.0131437 0)
(27.7497 -0.0134667 0)
(27.9161 -0.0149837 0)
(28.0664 -0.0130338 0)
(28.2346 -0.000545064 0)
(28.057 0.00687883 0)
(27.9806 0.00587589 0)
(27.8825 0.00558704 0)
(27.8508 0.0038543 0)
(27.7771 -0.00522372 0)
(27.9175 -0.0232574 0)
(28.2102 -0.0336156 0)
(28.5595 -0.0346868 0)
(28.8879 -0.0307004 0)
(29.1174 -0.025731 0)
(29.3559 -0.0138261 0)
(29.4102 -0.0153666 0)
(29.6292 0.00640082 0)
(29.511 0.0476621 0)
(29.2538 0.0604533 0)
(28.82 0.049249 0)
(28.507 0.0177002 0)
(28.3876 0.0015794 0)
(28.3463 0.000926267 0)
(28.2832 0.00424394 0)
(28.1953 -0.000647104 0)
(28.1023 0.00104359 0)
(28.0073 0.011986 0)
(27.91 0.0158151 0)
(27.8056 0.0177448 0)
(27.6956 0.0186765 0)
(27.5901 0.0207514 0)
(27.488 0.0231752 0)
(27.4242 0.0200565 0)
(27.3912 0.0122214 0)
(27.3811 0.00375046 0)
(27.3876 -0.00475863 0)
(27.4064 -0.0137803 0)
(27.4391 -0.0223355 0)
(27.4753 -0.0330305 0)
(27.5248 -0.0407853 0)
(27.562 -0.0311663 0)
(27.5911 -0.00660157 0)
(27.6332 0.0072042 0)
(27.688 0.00876747 0)
(27.7047 0.0151614 0)
(27.7621 0.00513822 0)
(27.7978 -0.00318958 0)
(27.8531 -0.0612042 0)
(27.9057 -0.0946277 0)
(28.0478 -0.0897216 0)
(28.1071 -0.11451 0)
(28.1822 -0.107758 0)
(28.3139 -0.132131 0)
(28.3109 -0.141109 0)
(28.5183 -0.162015 0)
(28.4756 -0.202435 0)
(28.6967 -0.147872 0)
(28.5901 -0.159145 0)
(41.0493 0.255074 0)
(33.7207 0.107797 0)
(30.2101 0.040256 0)
(28.4888 0.0123041 0)
(27.7744 0.0014997 0)
(27.5053 0.000173219 0)
(27.3584 -0.00287619 0)
(27.2632 -0.00390951 0)
(27.2005 -0.00239284 0)
(27.1167 -0.00154104 0)
(27.0881 -0.000966694 0)
(27.0953 -0.000325765 0)
(27.1093 0.000307991 0)
(27.1003 -0.00319379 0)
(27.5632 -0.00643522 0)
(27.8026 -0.00436694 0)
(27.8876 -0.00176931 0)
(27.9013 -9.52686e-05 0)
(27.8747 0.000554033 0)
(27.8752 0.000237238 0)
(27.8722 -0.000364301 0)
(27.8627 -0.000830523 0)
(27.8111 -0.00425676 0)
(27.8093 -0.010524 0)
(27.9014 -0.0150259 0)
(28.0519 -0.0172759 0)
(28.2241 -0.0165317 0)
(28.389 -0.0147564 0)
(28.5449 -0.0144751 0)
(28.6928 -0.0147759 0)
(28.8259 -0.0151019 0)
(28.9634 -0.0165799 0)
(29.0766 -0.0147419 0)
(29.2239 -0.000572883 0)
(29.1024 0.00827713 0)
(29.039 0.00695313 0)
(28.9564 0.0063687 0)
(28.9377 0.00453281 0)
(28.871 -0.00556357 0)
(28.9608 -0.0260626 0)
(29.1746 -0.0381292 0)
(29.4536 -0.0397713 0)
(29.7272 -0.0351222 0)
(29.9289 -0.0296966 0)
(30.1474 -0.0165481 0)
(30.2225 -0.0178996 0)
(30.4033 0.00511642 0)
(30.3744 0.0502864 0)
(30.2366 0.0664204 0)
(29.9384 0.0565577 0)
(29.672 0.0226544 0)
(29.5329 0.0037926 0)
(29.4717 0.0023455 0)
(29.4103 0.00616025 0)
(29.327 0.00174136 0)
(29.2417 0.00353715 0)
(29.1581 0.0145231 0)
(29.0782 0.0185383 0)
(28.9956 0.0206876 0)
(28.9116 0.0216931 0)
(28.8349 0.0237155 0)
(28.7612 0.0255748 0)
(28.7192 0.0215136 0)
(28.7016 0.012964 0)
(28.6976 0.00378801 0)
(28.7023 -0.0053757 0)
(28.7132 -0.0150543 0)
(28.7326 -0.0241484 0)
(28.7542 -0.0353219 0)
(28.7827 -0.0430656 0)
(28.7987 -0.0334266 0)
(28.8278 -0.00991671 0)
(28.8737 0.00268407 0)
(28.9368 0.00450116 0)
(28.9834 0.00981842 0)
(29.0612 -0.00103838 0)
(29.1213 -0.0100984 0)
(29.1949 -0.065781 0)
(29.2285 -0.103881 0)
(29.3264 -0.101462 0)
(29.3754 -0.121499 0)
(29.4315 -0.121364 0)
(29.5668 -0.142556 0)
(29.5833 -0.156532 0)
(29.7389 -0.173829 0)
(29.6865 -0.21221 0)
(29.9136 -0.167131 0)
(29.8092 -0.186006 0)
(42.7743 0.283592 0)
(36.4828 0.13147 0)
(32.8584 0.053034 0)
(30.8504 0.0189003 0)
(29.8664 0.00454405 0)
(29.4278 0.00161385 0)
(29.1716 -0.00191899 0)
(28.9679 -0.00319898 0)
(28.8329 -0.0017506 0)
(28.6814 -0.000998458 0)
(28.5928 -0.000758322 0)
(28.5657 -0.000350238 0)
(28.5737 0.000359137 0)
(28.5259 -0.00465526 0)
(28.9252 -0.00886735 0)
(29.1466 -0.00558288 0)
(29.2344 -0.00217713 0)
(29.2542 -5.22265e-05 0)
(29.2268 0.000709586 0)
(29.2055 0.000345511 0)
(29.1814 -0.000212953 0)
(29.1553 -0.000474081 0)
(29.1 -0.003895 0)
(29.0731 -0.0107613 0)
(29.1174 -0.0160337 0)
(29.2214 -0.0187994 0)
(29.3535 -0.0182476 0)
(29.4865 -0.0164811 0)
(29.6149 -0.0161827 0)
(29.7384 -0.0164151 0)
(29.8481 -0.0167439 0)
(29.9631 -0.0181163 0)
(30.0479 -0.0164261 0)
(30.1732 -0.000867506 0)
(30.1028 0.00944473 0)
(30.0528 0.00798729 0)
(29.9933 0.0070643 0)
(29.9825 0.00517323 0)
(29.9303 -0.00564507 0)
(29.9795 -0.028351 0)
(30.1257 -0.042233 0)
(30.3364 -0.0447228 0)
(30.558 -0.0396593 0)
(30.7319 -0.0339764 0)
(30.9244 -0.0198025 0)
(31.0113 -0.0207276 0)
(31.1569 0.00309143 0)
(31.1858 0.0512537 0)
(31.1354 0.0706522 0)
(30.956 0.0629437 0)
(30.7502 0.0279862 0)
(30.6162 0.00681512 0)
(30.5465 0.00429009 0)
(30.4852 0.00835947 0)
(30.4105 0.00439305 0)
(30.3348 0.00623135 0)
(30.2615 0.0171312 0)
(30.1964 0.0212015 0)
(30.1319 0.0234511 0)
(30.0688 0.0244116 0)
(30.0137 0.026279 0)
(29.9635 0.0275329 0)
(29.9384 0.022547 0)
(29.9309 0.013392 0)
(29.9296 0.00377066 0)
(29.9322 -0.00577304 0)
(29.9374 -0.0158981 0)
(29.9483 -0.0254687 0)
(29.9625 -0.0368939 0)
(29.9774 -0.044383 0)
(29.986 -0.0354596 0)
(30.0162 -0.0140644 0)
(30.0645 -0.00315903 0)
(30.1264 -0.00217696 0)
(30.1885 0.00149363 0)