/*--------------------------------*- C++ -*----------------------------------*\
| =========                 |                                                 |
| \\      /  F ield         | OpenFOAM: The Open Source CFD Toolbox           |
|  \\    /   O peration     | Version:  5.x                                   |
|   \\  /    A nd           | Web:      www.OpenFOAM.org                      |
|    \\/     M anipulation  |                                                 |
\*---------------------------------------------------------------------------*/
FoamFile
{
    version     2.0;
    format      ascii;
    class       volScalarField;
    location    "1000";
    object      p;
}
// * * * * * * * * * * * * * * * * * * * * * * * * * * * * * * * * * * * * * //

dimensions      [0 2 -2 0 0 0 0];

internalField   nonuniform List<scalar> 
60000
(
-0.000168142
-0.000188879
-0.000160074
-0.000167958
-9.48166e-05
3.42481e-06
1.94088e-05
-5.01153e-05
-0.000108898
-9.51079e-05
-4.80022e-05
3.00146e-05
8.13443e-05
5.30315e-05
2.83723e-05
3.14489e-05
-1.50135e-05
-9.49708e-05
-0.000103338
1.40628e-08
9.07318e-05
0.000128243
0.000119997
2.8669e-05
-8.33526e-05
-5.07719e-05
1.67135e-05
2.30255e-05
-2.54518e-07
-1.09298e-05
-5.27523e-05
-6.4948e-05
-3.55927e-05
-4.98263e-07
3.84367e-06
-1.60609e-05
-2.71446e-05
-1.08914e-06
2.22438e-05
-5.13597e-05
-0.000170781
-0.000190712
-0.000160226
-0.000170428
-9.74108e-05
2.90492e-06
2.0672e-05
-4.85445e-05
-0.00010785
-9.46622e-05
-4.93998e-05
2.84188e-05
8.14332e-05
5.35795e-05
2.87433e-05
3.25359e-05
-1.40041e-05
-9.49457e-05
-0.00010478
-5.63002e-07
9.08211e-05
0.000128823
0.000121178
3.03736e-05
-8.36376e-05
-5.1127e-05
1.72708e-05
2.33216e-05
-5.46729e-07
-1.04302e-05
-5.31512e-05
-6.55779e-05
-3.56049e-05
6.75684e-07
5.18412e-06
-1.5499e-05
-2.73679e-05
-1.12964e-06
2.21738e-05
-5.23942e-05
-0.000178431
-0.000195813
-0.000159942
-0.000172365
-0.000101195
2.56018e-06
2.35806e-05
-4.48056e-05
-0.00010518
-9.40616e-05
-5.17113e-05
2.64868e-05
8.27894e-05
5.58223e-05
3.03546e-05
3.47568e-05
-1.22999e-05
-9.54798e-05
-0.000107408
-1.51863e-06
9.11306e-05
0.000129754
0.000123056
3.07587e-05
-8.57091e-05
-5.28804e-05
1.77205e-05
2.34869e-05
-1.25138e-06
-9.58641e-06
-5.42546e-05
-6.75376e-05
-3.57158e-05
2.12041e-06
6.56165e-06
-1.62733e-05
-2.99123e-05
-3.35324e-06
2.09179e-05
-5.603e-05
-0.000187974
-0.000202454
-0.000158042
-0.000171416
-0.000104026
2.42171e-06
2.69764e-05
-3.92127e-05
-0.000101363
-9.52335e-05
-5.67778e-05
2.43622e-05
8.57121e-05
5.98762e-05
3.32876e-05
3.9117e-05
-9.25427e-06
-9.61744e-05
-0.000110778
-3.46792e-06
9.07811e-05
0.000130807
0.000125926
3.06225e-05
-9.01861e-05
-5.6392e-05
1.74593e-05
2.30118e-05
-2.42823e-06
-7.73108e-06
-5.19634e-05
-6.9702e-05
-3.60737e-05
3.63392e-06
8.3591e-06
-1.76998e-05
-3.53204e-05
-9.35344e-06
1.70576e-05
-6.11591e-05
-0.000197288
-0.000208231
-0.00015126
-0.000167581
-0.000106308
9.14538e-07
2.96409e-05
-3.15264e-05
-9.69644e-05
-9.86283e-05
-6.66261e-05
1.76019e-05
8.49559e-05
6.10979e-05
3.47043e-05
4.42872e-05
-4.54895e-06
-9.64848e-05
-0.000114822
-6.52305e-06
8.83824e-05
0.000130394
0.00012884
2.87055e-05
-9.75743e-05
-6.11284e-05
1.65444e-05
2.11149e-05
-3.68881e-06
-3.51904e-06
-4.7174e-05
-6.98194e-05
-3.5664e-05
4.75171e-06
1.13224e-05
-1.76701e-05
-4.51251e-05
-2.08842e-05
1.15261e-05
-6.42981e-05
-0.000203448
-0.000215376
-0.00014559
-0.000166533
-0.000114713
-9.02717e-06
2.55601e-05
-2.21345e-05
-8.26088e-05
-9.98392e-05
-7.82412e-05
7.32248e-06
7.67134e-05
4.98625e-05
2.87536e-05
4.68226e-05
9.44238e-07
-9.56397e-05
-0.00012196
-1.30576e-05
8.28628e-05
0.000127542
0.000132713
2.57258e-05
-0.000111599
-6.70667e-05
1.80066e-05
1.92961e-05
-4.17844e-06
6.14068e-06
-3.73935e-05
-6.75994e-05
-3.47251e-05
6.70824e-06
1.81945e-05
-1.63215e-05
-6.29615e-05
-4.33942e-05
3.77813e-06
-6.04435e-05
-0.000209546
-0.000229751
-0.000154214
-0.000171282
-0.000127112
-3.25884e-05
7.35811e-06
-2.2077e-05
-6.29709e-05
-8.75587e-05
-8.39784e-05
-4.27573e-06
6.3449e-05
2.95573e-05
1.70999e-05
4.49916e-05
4.93361e-06
-9.37069e-05
-0.000132133
-2.56301e-05
7.22588e-05
0.000120102
0.000134932
2.81932e-05
-0.000127511
-7.88985e-05
2.06562e-05
2.23184e-05
-3.27547e-06
2.56455e-05
-2.24348e-05
-6.45519e-05
-3.49292e-05
1.75495e-05
2.69874e-05
-1.70701e-05
-8.9588e-05
-7.97738e-05
-7.84564e-06
-5.47239e-05
-0.000209777
-0.000249527
-0.00017968
-0.000172251
-0.000137434
-5.3425e-05
-2.41589e-05
-3.55882e-05
-4.58624e-05
-5.9555e-05
-7.56133e-05
-1.83006e-05
4.69103e-05
7.94849e-06
4.96319e-06
4.45046e-05
6.8144e-06
-9.38567e-05
-0.000139105
-4.06182e-05
5.8239e-05
0.000109723
0.000132841
3.38105e-05
-0.000135494
-8.93767e-05
2.38637e-05
3.05245e-05
-2.14389e-06
3.19485e-05
-1.19088e-05
-6.32744e-05
-3.63959e-05
2.07671e-05
3.23488e-05
-2.62014e-05
-0.000118704
-0.000122736
-2.79134e-05
-4.38614e-05
-0.000180104
-0.000254143
-0.000212804
-0.000193413
-0.000155677
-6.62498e-05
-4.79367e-05
-5.07276e-05
-3.23981e-05
-1.8701e-05
-4.3698e-05
-2.82615e-05
2.72414e-05
-7.13725e-06
3.16778e-07
4.80466e-05
1.19187e-05
-9.45859e-05
-0.000140794
-5.12648e-05
4.39013e-05
9.76236e-05
0.000128041
4.23454e-05
-0.000129013
-8.8682e-05
3.0095e-05
4.0408e-05
3.32e-07
2.93824e-05
-1.36465e-05
-6.68296e-05
-3.64732e-05
2.86886e-05
3.63155e-05
-3.19669e-05
-0.000128802
-0.000156513
-5.00506e-05
-2.40722e-05
-0.000123173
-0.000224077
-0.00021584
-0.000189643
-0.000170553
-8.85722e-05
-6.79236e-05
-6.45368e-05
-2.03527e-05
3.19184e-05
1.69283e-05
-1.09345e-05
1.08063e-05
-1.41186e-05
8.48342e-06
6.29743e-05
2.43206e-05
-9.40488e-05
-0.000142601
-5.84762e-05
3.07341e-05
8.46293e-05
0.000120122
4.74834e-05
-0.000109625
-8.46885e-05
3.61251e-05
4.73283e-05
2.66642e-06
1.92668e-05
-2.91213e-05
-8.12298e-05
-3.62835e-05
4.28894e-05
4.12621e-05
-3.11965e-05
-0.000113935
-0.000164424
-7.52123e-05
-3.1222e-06
-5.90973e-05
-0.00017451
-0.000173367
-0.000153605
-0.000166844
-0.000109048
-7.9705e-05
-9.37044e-05
-3.04978e-05
5.18984e-05
7.50506e-05
3.78863e-05
1.21927e-05
-2.37357e-05
4.4082e-06
7.53822e-05
3.6489e-05
-8.97696e-05
-0.00014574
-6.39987e-05
1.94003e-05
7.08869e-05
0.000106849
4.31064e-05
-0.000112855
-8.79708e-05
2.90551e-05
3.42559e-05
3.91361e-06
9.14989e-06
-4.25452e-05
-8.53431e-05
-3.10754e-05
5.35612e-05
4.71508e-05
-2.33561e-05
-8.63757e-05
-0.000136827
-9.23373e-05
8.19026e-06
-2.65627e-05
-0.000139232
-0.000145472
-0.000130353
-0.000153912
-0.000115847
-9.58626e-05
-0.000119067
-7.02812e-05
2.77882e-05
8.79451e-05
6.95083e-05
1.59302e-05
-3.89372e-05
-1.84066e-05
7.07239e-05
3.80454e-05
-0.000107387
-0.000152306
-6.88921e-05
1.27963e-05
6.40745e-05
9.88953e-05
4.16301e-05
-0.000147205
-0.000102428
2.1705e-06
1.38641e-05
7.87496e-06
6.74763e-06
-3.61255e-05
-8.50032e-05
-3.9374e-05
4.93037e-05
5.1977e-05
-9.35825e-07
-4.02014e-05
-9.02649e-05
-8.52786e-05
1.89229e-05
-1.11808e-05
-0.000132143
-0.000166822
-0.000171726
-0.000172153
-0.000124501
-0.000103551
-0.000132604
-0.000121481
-2.39091e-05
5.25086e-05
5.64017e-05
1.15718e-05
-3.43658e-05
-2.12411e-05
5.97755e-05
3.61082e-05
-9.19212e-05
-0.000147839
-6.91319e-05
9.58037e-06
6.20976e-05
9.81794e-05
3.76923e-05
-0.000131503
-0.000100172
-1.19683e-05
-2.69721e-06
-5.71426e-06
-6.33366e-06
-3.37593e-05
-8.89001e-05
-5.74199e-05
3.04381e-05
4.20666e-05
1.57011e-05
-8.22261e-07
-5.5458e-05
-6.96516e-05
2.48079e-05
-7.13707e-06
-0.000122343
-0.00017454
-0.000185124
-0.000166066
-0.000129334
-0.000110697
-0.000132855
-0.000134759
-6.61964e-05
2.35288e-05
2.65361e-05
6.09899e-07
-1.94452e-05
-2.92987e-06
5.30449e-05
2.86471e-05
-8.95703e-05
-0.000146376
-6.83569e-05
8.59534e-06
6.5662e-05
0.000105664
3.12743e-05
-9.80296e-05
-8.9763e-05
-2.58277e-05
-1.52839e-05
-2.81959e-05
-2.7753e-05
-3.34292e-05
-7.95344e-05
-6.32533e-05
2.24446e-06
1.66773e-05
1.54521e-05
2.17735e-05
-3.58495e-05
-5.75713e-05
1.16566e-06
-1.5894e-05
-0.000108822
-0.000153259
-0.000148283
-0.000126741
-0.000112048
-0.000118114
-0.00014488
-0.000148403
-9.19426e-05
3.00735e-05
2.54438e-05
2.476e-06
-1.08759e-05
8.98583e-06
4.49987e-05
1.52724e-05
-8.11431e-05
-0.000135465
-4.43757e-05
5.67867e-05
9.25025e-05
9.75851e-05
3.50009e-05
-8.82776e-05
-8.45657e-05
-4.58219e-05
-3.37377e-05
-4.13116e-05
-3.96797e-05
-3.42081e-05
-6.26313e-05
-5.85421e-05
-1.64965e-05
-1.60357e-05
-1.21971e-05
2.14603e-05
2.02956e-06
-1.47735e-05
-4.48029e-06
-3.11796e-05
-0.000112189
-0.000151483
-0.000138676
-0.000107508
-9.27084e-05
-0.000106638
-0.000149081
-0.000166216
-0.000131312
-2.05915e-05
1.55259e-05
1.87871e-05
1.05526e-05
1.7956e-05
3.65808e-05
-2.72044e-06
-5.5808e-05
-0.000107722
-2.95397e-05
0.000109728
0.00017155
0.000121378
5.13318e-05
-3.20141e-05
-5.05803e-05
-3.27481e-05
-3.76627e-05
-5.58102e-05
-6.16521e-05
-5.38113e-05
-4.27323e-05
-1.7867e-05
-6.27053e-06
-3.30718e-05
-4.73176e-05
4.15815e-06
0.00010273
7.55757e-05
3.74316e-05
-2.09997e-05
-0.000104716
-0.000130543
-0.000105837
-7.99412e-05
-7.76254e-05
-0.000115359
-0.000143072
-0.000142693
-0.000105781
-2.2918e-05
-6.27406e-06
9.45783e-06
1.3394e-05
1.90672e-05
3.28183e-05
-1.80641e-05
-0.000101341
-9.81653e-05
-3.14438e-05
9.30486e-05
0.000174422
0.000166874
0.000108054
3.86714e-05
-1.0569e-05
-1.53733e-05
-4.10705e-05
-7.54883e-05
-9.76269e-05
-8.43526e-05
-5.54461e-05
-1.67286e-05
-2.15363e-07
-3.74261e-05
-5.88171e-05
-1.38957e-05
9.00254e-05
0.000120492
6.91232e-05
-1.273e-05
-7.25853e-05
-9.03143e-05
-8.76431e-05
-7.40308e-05
-6.98998e-05
-7.04691e-05
-0.000105242
-0.000120955
-9.09275e-05
-4.93325e-05
7.73394e-06
3.51825e-07
7.11638e-06
1.56615e-05
3.65879e-05
8.52704e-06
-6.70678e-05
-7.28366e-05
-9.01726e-06
7.53081e-05
0.000141154
0.000126359
0.000132517
8.60853e-05
1.91051e-05
-2.23449e-05
-5.96645e-05
-0.000113565
-0.000146632
-0.000132527
-9.61279e-05
-4.60624e-05
-1.60199e-05
-4.68972e-05
-5.99794e-05
-7.61227e-06
6.32685e-05
9.56083e-05
6.09129e-05
-7.88219e-06
-4.98565e-05
-6.2846e-05
-6.77339e-05
-6.43273e-05
-5.8401e-05
-6.15704e-05
-8.25213e-05
-0.000101119
-8.87189e-05
-5.97473e-05
-2.80026e-05
-9.60015e-06
4.34959e-06
1.40864e-05
2.6544e-05
2.99221e-05
3.86884e-06
-2.04479e-05
-6.85356e-07
5.60799e-05
0.000110838
0.000119598
0.000131815
0.000115379
5.23236e-05
-6.1607e-06
-5.93219e-05
-0.000132447
-0.000162612
-0.000146714
-0.000119938
-8.02747e-05
-3.17615e-05
-3.69924e-05
-3.84497e-05
-9.60204e-06
3.73299e-05
6.30174e-05
4.32992e-05
-1.9083e-06
-3.16319e-05
-4.20559e-05
-5.49881e-05
-6.71461e-05
-6.54095e-05
-6.69919e-05
-7.28233e-05
-9.25487e-05
-8.75225e-05
-6.00601e-05
-3.4943e-05
-1.49416e-05
-1.62163e-07
6.97346e-06
1.44004e-05
1.49728e-05
5.48949e-06
-7.81162e-06
1.57558e-06
2.61201e-05
3.84173e-05
6.411e-05
8.96267e-05
0.000106237
6.78978e-05
2.7265e-06
-5.92034e-05
-0.000114337
-0.000133281
-0.000126952
-0.000117518
-9.65155e-05
-5.6145e-05
-3.59177e-05
-3.09814e-05
-1.14697e-05
2.02902e-05
3.9443e-05
3.10739e-05
-9.97534e-07
-2.7414e-05
-3.33402e-05
-3.89649e-05
-5.40606e-05
-6.69152e-05
-7.49885e-05
-8.40251e-05
-9.02774e-05
-8.43156e-05
-6.35482e-05
-4.02172e-05
-3.27538e-05
-9.86603e-06
6.509e-06
1.00667e-05
9.14744e-06
9.39129e-06
2.29457e-06
5.06614e-06
2.95866e-05
4.06643e-05
4.06684e-05
6.01631e-05
0.000107287
8.16944e-05
8.24607e-06
-5.92363e-05
-9.45038e-05
-9.68486e-05
-9.04439e-05
-8.97728e-05
-8.38937e-05
-5.97519e-05
-4.21374e-05
-2.75516e-05
-7.82566e-06
1.32388e-05
2.53748e-05
2.25005e-05
5.76658e-06
-1.95308e-05
-2.75064e-05
-3.04351e-05
-4.2446e-05
-5.85474e-05
-6.67682e-05
-7.64168e-05
-8.73385e-05
-9.23783e-05
-7.59851e-05
-4.78194e-05
-2.97314e-05
-1.38506e-05
-7.01161e-08
1.15872e-05
1.24817e-05
1.55556e-05
8.39204e-06
2.78863e-06
1.91738e-05
3.58554e-05
2.30594e-05
3.30184e-05
7.31457e-05
7.31524e-05
2.8659e-05
-2.96841e-05
-6.90008e-05
-7.64566e-05
-6.83624e-05
-6.16925e-05
-4.98934e-05
-2.98497e-05
-1.32513e-05
-9.90822e-06
-1.55765e-06
8.6389e-06
1.86068e-05
2.10822e-05
5.08569e-06
-1.18602e-05
-2.26939e-05
-1.96143e-05
-2.81725e-05
-4.58661e-05
-5.67597e-05
-6.41144e-05
-6.60193e-05
-6.2547e-05
-5.696e-05
-5.15625e-05
-3.951e-05
-2.81037e-05
-1.60111e-05
-9.79832e-07
2.41515e-06
9.03479e-06
1.14479e-05
2.68551e-06
1.22796e-05
4.62942e-05
4.75672e-05
5.74404e-05
7.19477e-05
5.45006e-05
7.05075e-06
-4.80777e-05
-8.8485e-05
-9.64022e-05
-8.14601e-05
-5.81758e-05
-3.61035e-05
-1.18561e-05
1.51556e-06
3.319e-06
7.40798e-06
7.8905e-06
6.59113e-06
9.07411e-06
8.68117e-06
-1.36577e-06
-1.21001e-05
-1.40234e-05
-2.48751e-05
-4.37135e-05
-5.44253e-05
-5.64907e-05
-5.69077e-05
-4.884e-05
-4.07552e-05
-3.68573e-05
-3.04303e-05
-2.32124e-05
-1.95629e-05
-2.07181e-05
-2.19226e-05
-1.21395e-05
-2.99897e-06
-4.59575e-06
-8.26926e-07
1.11668e-06
2.01148e-05
2.58744e-05
3.23772e-05
2.63185e-05
1.74796e-06
-3.04829e-05
-5.80806e-05
-6.78049e-05
-5.90755e-05
-4.43675e-05
-3.51559e-05
-2.69937e-05
-1.65049e-05
-1.38328e-05
-6.20956e-06
-1.49236e-07
-1.33447e-07
3.65247e-06
8.21458e-06
8.49046e-06
8.24874e-07
-3.84939e-06
-1.58296e-05
-2.91529e-05
-3.58448e-05
-3.87887e-05
-3.38518e-05
-2.90859e-05
-2.92005e-05
-3.39287e-05
-3.98178e-05
-4.03215e-05
-3.22726e-05
-2.92074e-05
-3.04037e-05
-2.50612e-05
-1.9015e-05
-1.70271e-05
-1.30104e-05
-3.48537e-06
6.26732e-06
1.17674e-05
1.65094e-05
1.43075e-05
-1.79265e-06
-2.35297e-05
-4.19479e-05
-5.42972e-05
-5.00279e-05
-3.70895e-05
-3.12576e-05
-2.24573e-05
-1.3212e-05
-4.25272e-06
-2.89607e-06
3.74301e-06
3.77832e-06
2.88657e-06
3.44661e-05
1.16623e-08
8.39528e-06
-8.27439e-05
-0.000122295
-9.6607e-05
-0.000110724
-0.000164317
-0.000185522
-0.000130737
-7.04944e-05
-6.02498e-05
-7.4423e-05
-4.90604e-05
2.56278e-05
8.20646e-05
1.14431e-05
-0.0001217
-0.000155441
-2.58054e-05
8.91712e-05
0.000140761
0.000192099
0.000175202
6.36565e-05
-2.15733e-06
2.77703e-05
2.35123e-05
-3.29817e-05
-5.32196e-05
-1.01089e-05
-1.2236e-07
-4.49226e-05
-5.18654e-05
-1.45e-09
3.89224e-05
2.81937e-05
1.64861e-05
6.09971e-05
0.000101715
3.6403e-05
1.90676e-06
1.16322e-05
-8.18333e-05
-0.000123119
-9.69439e-05
-0.000110055
-0.000164029
-0.000185912
-0.000131012
-7.05193e-05
-6.05713e-05
-7.54589e-05
-5.12526e-05
2.50045e-05
8.33248e-05
1.26217e-05
-0.000121676
-0.000157932
-2.76405e-05
8.79336e-05
0.000139195
0.000191322
0.00017543
6.37795e-05
-3.12154e-06
2.73379e-05
2.38862e-05
-3.36727e-05
-5.49626e-05
-1.08108e-05
8.55947e-07
-4.47624e-05
-5.36077e-05
-8.22456e-07
3.88357e-05
2.85801e-05
1.49045e-05
5.84191e-05
0.000102186
3.23228e-05
-1.73919e-06
1.23131e-05
-8.15944e-05
-0.000126094
-9.85141e-05
-0.000111085
-0.000164672
-0.000187339
-0.000131725
-7.06609e-05
-6.12553e-05
-7.71741e-05
-5.47654e-05
2.39913e-05
8.56364e-05
1.462e-05
-0.000122035
-0.000161225
-2.9322e-05
8.71387e-05
0.000137162
0.000190235
0.000176468
6.49492e-05
-4.46544e-06
2.64432e-05
2.4298e-05
-3.42098e-05
-5.64901e-05
-1.14923e-05
2.08302e-06
-4.46877e-05
-5.53865e-05
-1.33209e-06
3.90879e-05
2.99682e-05
1.36099e-05
5.31939e-05
9.70537e-05
1.52787e-05
-1.86358e-05
6.17726e-06
-8.33056e-05
-0.000132598
-0.000102209
-0.000112756
-0.000166718
-0.000189722
-0.000132248
-7.0372e-05
-6.14968e-05
-7.80264e-05
-5.82721e-05
2.26584e-05
8.74865e-05
1.69883e-05
-0.00012228
-0.000165577
-3.27936e-05
8.67693e-05
0.000135881
0.000188456
0.000177171
6.69068e-05
-4.50174e-06
2.63157e-05
2.42589e-05
-3.56777e-05
-5.79452e-05
-1.36118e-05
3.40753e-06
-4.49703e-05
-5.68264e-05
-1.02348e-06
3.90713e-05
3.48146e-05
1.43633e-05
4.65359e-05
8.41241e-05
-1.71426e-05
-5.45117e-05
-1.13144e-05
-8.7438e-05
-0.000141801
-0.000111166
-0.000116607
-0.000169282
-0.000189136
-0.000130996
-6.82027e-05
-6.03652e-05
-7.68214e-05
-6.14527e-05
2.02305e-05
8.73297e-05
1.7974e-05
-0.000123495
-0.000169559
-3.84699e-05
8.54217e-05
0.00013562
0.000186625
0.000175164
6.76725e-05
-3.4908e-06
3.09861e-05
2.70802e-05
-3.78185e-05
-6.25723e-05
-1.68081e-05
5.41406e-06
-4.48842e-05
-5.96616e-05
-1.40361e-06
3.92392e-05
4.40276e-05
2.14994e-05
4.35582e-05
6.64356e-05
-5.75695e-05
-0.000108606
-4.38738e-05
-9.02608e-05
-0.000145152
-0.000125701
-0.000129164
-0.000172199
-0.000183421
-0.000123278
-6.20572e-05
-5.55575e-05
-7.35434e-05
-6.7067e-05
1.33756e-05
8.25823e-05
1.65111e-05
-0.00012704
-0.00018236
-5.07876e-05
7.94937e-05
0.000135201
0.000186098
0.000171063
6.44607e-05
-4.18705e-06
3.87378e-05
3.79334e-05
-3.45659e-05
-6.78668e-05
-2.33042e-05
7.47454e-06
-4.56928e-05
-6.56912e-05
-5.6033e-06
4.0895e-05
5.44647e-05
3.36583e-05
4.63754e-05
4.76468e-05
-0.000103653
-0.000174514
-8.98743e-05
-9.02358e-05
-0.000138971
-0.00013325
-0.000147474
-0.000184854
-0.000180311
-0.000111508
-5.51067e-05
-5.07313e-05
-6.64585e-05
-7.0747e-05
1.41742e-06
7.55715e-05
1.4941e-05
-0.0001297
-0.000198019
-7.28399e-05
6.6607e-05
0.000132692
0.000186102
0.000167843
6.05468e-05
-7.05033e-06
4.31277e-05
5.4414e-05
-1.95507e-05
-6.02777e-05
-2.68614e-05
5.4022e-06
-4.76797e-05
-7.08076e-05
-1.08905e-05
4.52267e-05
6.37599e-05
4.93592e-05
5.15283e-05
3.30304e-05
-0.000143544
-0.000242634
-0.000138489
-8.8518e-05
-0.000124911
-0.000134217
-0.000158151
-0.000215908
-0.000195721
-0.000108863
-4.91323e-05
-4.84501e-05
-5.70797e-05
-7.28977e-05
-1.87243e-05
6.3236e-05
1.47315e-05
-0.000134863
-0.000206238
-9.51444e-05
5.02554e-05
0.000128567
0.00018725
0.000165701
5.68091e-05
-8.69576e-06
4.29193e-05
6.34268e-05
5.38835e-06
-3.85594e-05
-1.85149e-05
-7.37728e-06
-5.00692e-05
-6.53131e-05
-1.08942e-05
4.77121e-05
7.11387e-05
6.57498e-05
5.7479e-05
2.9084e-05
-0.00014452
-0.000294079
-0.000179768
-0.000101094
-0.000118417
-0.00013466
-0.000166678
-0.000237904
-0.000218066
-0.000112148
-4.29337e-05
-4.81238e-05
-5.50579e-05
-8.42584e-05
-5.11437e-05
3.48266e-05
8.99619e-06
-0.000134379
-0.000212544
-0.000110393
3.54957e-05
0.000123632
0.000187018
0.000164909
5.40435e-05
-9.77553e-06
4.22568e-05
6.74495e-05
7.16796e-06
-1.82351e-05
-2.75431e-06
-1.23772e-05
-4.97584e-05
-5.15953e-05
-3.56379e-06
4.81632e-05
7.71672e-05
7.56902e-05
6.11247e-05
4.02296e-05
-0.000114334
-0.000300404
-0.000198007
-0.000116568
-0.000124377
-0.00013412
-0.000169273
-0.000255994
-0.000240007
-0.00011466
-2.88242e-05
-4.21753e-05
-5.6745e-05
-7.18352e-05
-4.74408e-05
2.19171e-05
-2.38907e-07
-0.000133735
-0.000214641
-0.000125311
2.00351e-05
0.000118367
0.000185747
0.00016424
5.04555e-05
-1.00485e-05
3.70646e-05
6.1284e-05
-6.51635e-06
-5.45778e-06
9.68945e-06
-1.98296e-05
-4.52622e-05
-3.481e-05
8.08074e-06
4.94113e-05
7.81548e-05
6.61976e-05
6.58959e-05
5.76637e-05
-8.42467e-05
-0.000285235
-0.000202901
-0.000125322
-0.000141406
-0.000138348
-0.000162848
-0.000241099
-0.000255993
-0.000130612
-1.60036e-05
-2.38571e-05
-5.49759e-05
-4.16828e-05
-1.07413e-05
4.15276e-05
4.07876e-06
-0.000128049
-0.000210957
-0.000136233
3.90817e-06
0.000109119
0.000186937
0.000170821
5.52469e-05
-9.93228e-06
2.7929e-05
5.43806e-05
-2.39011e-05
-1.19539e-05
1.08799e-06
-2.94752e-05
-3.97587e-05
-2.25743e-05
1.95363e-05
4.9589e-05
7.12146e-05
5.27994e-05
8.20026e-05
8.19406e-05
-5.38293e-05
-0.000287998
-0.000210092
-0.00012844
-0.000133991
-0.000120542
-0.000140206
-0.000213741
-0.000251912
-0.00016375
-3.79702e-05
-1.14198e-05
-3.98834e-05
-5.17431e-05
1.76684e-07
5.16526e-05
1.05081e-05
-0.000124259
-0.000205836
-0.000143551
-8.45967e-06
0.00010231
0.00018871
0.000182975
7.92998e-05
-8.26636e-06
9.75623e-06
3.69735e-05
-3.73716e-05
-2.28061e-05
-1.28415e-05
-3.50732e-05
-3.80014e-05
-2.06089e-05
2.25693e-05
4.33982e-05
6.16555e-05
4.98077e-05
0.000103117
0.000115672
-1.02088e-05
-0.000230844
-0.000188636
-0.000134537
-0.000148857
-0.000115505
-0.000119398
-0.000184556
-0.00022602
-0.000183424
-7.98143e-05
-2.92639e-05
-2.70585e-05
-3.26889e-05
-4.71983e-06
3.90927e-05
7.867e-06
-0.000107461
-0.000180334
-0.000142601
-2.73401e-05
9.67933e-05
0.000198257
0.000196054
0.000107978
-5.99827e-06
-1.03797e-05
1.85266e-05
-4.65404e-05
-3.53761e-05
-2.73008e-05
-4.32672e-05
-3.99419e-05
-2.36865e-05
1.15668e-05
2.95054e-05
5.25026e-05
5.54753e-05
0.000107478
0.000139157
3.58268e-05
-0.000144906
-0.00014636
-0.000137761
-0.00014881
-0.000120975
-0.000111748
-0.000162423
-0.000200384
-0.000168507
-0.000105159
-4.55987e-05
-2.42226e-05
-1.5062e-05
4.273e-06
3.13467e-05
1.84619e-06
-8.62471e-05
-0.000130346
-0.000104068
-4.32532e-05
6.79855e-05
0.000198921
0.000216078
0.000123255
3.96369e-06
-2.64483e-05
-1.36919e-05
-5.83232e-05
-5.11602e-05
-3.96144e-05
-5.38225e-05
-5.24103e-05
-3.83468e-05
-2.55058e-06
1.23783e-05
3.90219e-05
5.81883e-05
9.62455e-05
0.000155511
4.71704e-05
-9.44955e-05
-0.000123333
-0.000115748
-0.00013128
-0.00010872
-0.000101767
-0.000149271
-0.000183351
-0.000151715
-0.000113864
-4.93266e-05
-2.38629e-05
-1.0134e-05
1.94648e-06
2.50031e-05
1.2987e-05
-5.45414e-05
-8.45463e-05
-4.61441e-05
-1.4104e-05
4.29081e-05
0.000168207
0.000217393
0.000154341
1.70158e-05
-3.45367e-05
-4.34063e-05
-6.81727e-05
-6.45569e-05
-4.57136e-05
-4.87878e-05
-5.75322e-05
-6.92486e-05
-2.75544e-05
-5.21675e-06
3.74976e-05
6.87143e-05
0.000101956
0.000136193
2.05689e-05
-9.23149e-05
-0.000111528
-0.000108254
-0.000109237
-0.000101236
-0.000104758
-0.000143346
-0.000166217
-0.000134156
-0.000113189
-5.97359e-05
-2.61999e-05
-6.69341e-06
-5.05683e-06
1.07356e-05
2.47694e-05
-3.25012e-05
-6.49581e-05
-3.12162e-05
1.50037e-05
4.50091e-05
0.000131763
0.000189984
0.000135405
1.9941e-05
-4.29049e-05
-5.99254e-05
-7.28571e-05
-6.94098e-05
-5.41194e-05
-5.14432e-05
-6.25402e-05
-4.71959e-05
-4.43343e-05
-2.47802e-05
2.88552e-05
8.18716e-05
9.65083e-05
0.000101614
8.60269e-06
-7.97099e-05
-8.34814e-05
-7.30437e-05
-7.9353e-05
-9.39002e-05
-0.000108365
-0.000134842
-0.000139007
-0.000107333
-0.000107744
-7.94847e-05
-4.61962e-05
-1.70344e-05
-5.40557e-06
6.9889e-06
8.79668e-06
-2.81958e-05
-4.31422e-05
-1.42234e-05
3.45957e-05
2.95979e-05
0.00011006
0.000155583
0.000121686
2.47074e-05
-5.15669e-05
-7.26995e-05
-9.26823e-05
-9.88453e-05
-9.10035e-05
-8.00385e-05
-6.49435e-05
-5.63527e-05
-5.0773e-05
-3.91623e-05
-2.03804e-07
6.08579e-05
0.000105077
8.08493e-05
5.93772e-06
-4.12685e-05
-4.42391e-05
-4.6387e-05
-6.15736e-05
-7.91272e-05
-9.6747e-05
-0.00012838
-0.000127254
-8.86917e-05
-6.18176e-05
-5.06794e-05
-4.10179e-05
-1.36431e-05
5.30419e-06
1.14142e-05
1.20326e-05
1.62331e-06
-1.03475e-05
1.28099e-05
4.72231e-05
2.71458e-05
8.657e-05
0.000144876
0.000133859
4.08025e-05
-4.23485e-05
-0.000101391
-0.0001496
-0.000166079
-0.000142484
-0.000102631
-6.67786e-05
-5.96889e-05
-4.74176e-05
-4.85107e-05
-2.222e-05
2.82057e-05
6.26665e-05
5.17688e-05
1.76469e-06
-3.3399e-05
-4.66511e-05
-5.2578e-05
-5.64878e-05
-5.5764e-05
-6.92003e-05
-0.000100261
-0.000122007
-0.000103377
-6.77564e-05
-4.78942e-05
-3.97881e-05
-1.43866e-05
1.50088e-05
2.21635e-05
1.80041e-05
1.18265e-05
3.96219e-06
9.43527e-06
4.23012e-05
5.50935e-05
7.09682e-05
0.000120405
0.000135154
7.10377e-05
-1.75735e-05
-0.000113276
-0.00017235
-0.000187661
-0.000145491
-0.000105526
-7.15607e-05
-6.85414e-05
-4.7162e-05
-3.74215e-05
-1.96054e-05
1.58406e-05
4.35757e-05
4.19349e-05
3.62138e-06
-2.25698e-05
-3.54485e-05
-4.22235e-05
-5.09291e-05
-5.39232e-05
-6.07014e-05
-7.95592e-05
-0.000103438
-0.00010169
-7.37019e-05
-5.24954e-05
-4.35642e-05
-1.9352e-05
5.46364e-07
1.00584e-05
9.68936e-06
1.27501e-05
1.04383e-05
1.13931e-05
3.22467e-05
5.58338e-05
8.10342e-05
0.000112078
0.000116446
6.92026e-05
-1.15688e-05
-9.26856e-05
-0.000148326
-0.000163462
-0.000138335
-0.000106242
-7.72285e-05
-6.34646e-05
-4.1638e-05
-3.14418e-05
-1.53777e-05
9.59583e-06
3.05651e-05
3.34845e-05
4.95419e-06
-1.93959e-05
-2.65938e-05
-3.00291e-05
-4.05007e-05
-5.70419e-05
-7.10745e-05
-8.10597e-05
-8.74622e-05
-7.49673e-05
-5.85466e-05
-5.04556e-05
-6.30485e-05
-2.58153e-05
-4.42081e-06
4.08509e-06
-1.97862e-06
8.26507e-08
1.09829e-05
1.20843e-05
2.44946e-05
5.08465e-05
7.62601e-05
0.000111666
0.00012144
8.61835e-05
4.36545e-06
-7.60886e-05
-0.000128006
-0.00013389
-0.000116311
-9.03662e-05
-7.05543e-05
-5.07736e-05
-3.50377e-05
-2.36632e-05
-8.31143e-06
6.19481e-06
1.80377e-05
2.1728e-05
8.60242e-06
-1.29836e-05
-2.6921e-05
-2.68341e-05
-3.21321e-05
-4.88314e-05
-6.40941e-05
-7.65762e-05
-8.46924e-05
-7.40085e-05
-4.78428e-05
-3.47463e-05
-3.42585e-05
-2.03765e-05
-3.10982e-06
2.9944e-06
-2.47888e-06
-1.9595e-06
1.62254e-06
3.95898e-06
1.84057e-05
3.79488e-05
4.05751e-05
5.63867e-05
7.11026e-05
5.5982e-05
-3.02309e-06
-6.80543e-05
-0.00010253
-9.40722e-05
-6.67235e-05
-5.27346e-05
-4.38309e-05
-2.97318e-05
-1.72826e-05
-8.39568e-06
4.99403e-06
1.26421e-05
1.75113e-05
1.95557e-05
1.21199e-05
-5.08275e-06
-2.67475e-05
-2.23944e-05
-2.8417e-05
-4.2757e-05
-5.14949e-05
-5.57025e-05
-5.68203e-05
-5.58225e-05
-4.77622e-05
-4.17424e-05
-3.53304e-05
-2.81736e-05
-1.77655e-05
-1.33401e-05
-6.76202e-06
-4.59037e-06
-1.44722e-06
-3.96896e-06
5.72376e-06
3.39706e-05
4.36828e-05
4.94617e-05
5.42101e-05
3.79807e-05
-5.81445e-06
-6.24231e-05
-0.000105443
-0.000113166
-8.83838e-05
-6.29334e-05
-3.94925e-05
-2.25207e-05
-1.07243e-05
-8.64453e-06
7.80304e-07
6.09337e-06
7.21088e-06
1.25648e-05
9.97922e-06
2.14534e-06
-1.1753e-05
-1.69967e-05
-2.66521e-05
-3.98451e-05
-4.47428e-05
-4.42268e-05
-4.77726e-05
-4.69597e-05
-4.13145e-05
-3.56595e-05
-2.90712e-05
-2.1337e-05
-1.46588e-05
-1.81701e-05
-2.62301e-05
-2.58865e-05
-2.18788e-05
-2.19585e-05
-1.39132e-05
-3.90359e-06
1.81525e-05
2.63758e-05
2.77625e-05
1.72731e-05
-7.70009e-06
-4.00112e-05
-6.70886e-05
-7.69273e-05
-6.29579e-05
-4.4774e-05
-3.18877e-05
-2.11379e-05
-1.2624e-05
-8.53166e-06
-2.17355e-06
3.41892e-06
1.85776e-06
4.78362e-06
9.00127e-06
6.69444e-06
1.12808e-06
-4.59153e-06
-1.65579e-05
-2.81172e-05
-3.45116e-05
-3.08992e-05
-2.48138e-05
-2.18632e-05
-2.37362e-05
-2.66488e-05
-3.0137e-05
-3.01312e-05
-2.49596e-05
-2.23465e-05
-2.45219e-05
-2.49979e-05
-2.62556e-05
-2.85308e-05
-2.43681e-05
-1.7612e-05
-1.58021e-06
9.57747e-06
1.25379e-05
8.4611e-06
-5.94492e-06
-2.65971e-05
-4.45194e-05
-5.37382e-05
-5.0368e-05
-3.87724e-05
-3.25017e-05
-2.38389e-05
-1.2428e-05
-5.71337e-06
-2.79733e-06
2.4962e-06
2.80134e-06
3.82929e-06
9.1065e-05
9.9195e-05
0.000107333
3.14146e-05
-3.90809e-05
-0.000104607
-0.000189352
-0.000295487
-0.000271517
-0.000137494
-3.51516e-05
-1.38311e-05
2.76921e-06
-3.1424e-05
-2.96411e-05
-1.00264e-05
-9.14537e-05
-0.000224771
-0.000212999
-7.11709e-05
6.98778e-05
0.000147522
0.000164499
0.000102966
4.04238e-05
-8.19231e-06
-2.06056e-05
-1.64476e-05
-2.39884e-05
-4.30026e-05
-3.93873e-05
-2.44471e-05
-4.14593e-06
1.70778e-06
-2.00095e-05
-3.89636e-05
3.24513e-06
4.10686e-05
7.69246e-05
0.00010263
9.04946e-05
0.000100075
0.0001113
3.34879e-05
-3.76758e-05
-0.000103999
-0.000189315
-0.000297286
-0.000273738
-0.000138819
-3.55967e-05
-1.37979e-05
3.79682e-06
-3.04523e-05
-2.92456e-05
-9.38504e-06
-9.04107e-05
-0.000226563
-0.000216744
-7.26811e-05
6.88023e-05
0.000147349
0.000165228
0.00010302
4.00973e-05
-8.49577e-06
-2.11767e-05
-1.73816e-05
-2.48179e-05
-4.42285e-05
-4.03935e-05
-2.54723e-05
-4.69647e-06
1.06302e-06
-2.02256e-05
-3.98412e-05
2.34598e-06
4.02571e-05
7.57629e-05
0.000101342
8.7454e-05
9.86562e-05
0.000113804
3.35501e-05
-3.57627e-05
-0.000100791
-0.000189008
-0.00030406
-0.000281515
-0.000142654
-3.60635e-05
-1.45131e-05
4.99688e-06
-3.06087e-05
-3.11362e-05
-9.28881e-06
-8.94069e-05
-0.000230239
-0.000220425
-7.48593e-05
6.68958e-05
0.000146382
0.000165534
0.000102825
3.93997e-05
-9.3195e-06
-2.24097e-05
-1.8653e-05
-2.56088e-05
-4.61115e-05
-4.3186e-05
-2.80242e-05
-5.91551e-06
5.04644e-07
-2.0958e-05
-4.12659e-05
1.42434e-06
3.96133e-05
7.4728e-05
9.91004e-05
8.1161e-05
9.10033e-05
0.000114203
2.74819e-05
-3.93386e-05
-0.000100854
-0.000183717
-0.000306541
-0.000294149
-0.000150339
-3.71399e-05
-1.65813e-05
6.65184e-06
-3.14043e-05
-3.67339e-05
-1.19323e-05
-9.06149e-05
-0.00023722
-0.00022705
-7.47081e-05
6.39694e-05
0.000144345
0.00016424
0.000100853
3.74436e-05
-1.07562e-05
-2.38323e-05
-2.04608e-05
-2.70035e-05
-4.86486e-05
-4.82037e-05
-3.42363e-05
-1.01258e-05
-1.00911e-06
-2.28604e-05
-4.28847e-05
7.86798e-07
3.80801e-05
7.24365e-05
9.56233e-05
7.16748e-05
7.72418e-05
0.000105406
2.08127e-05
-5.13259e-05
-0.000109739
-0.000177497
-0.000291158
-0.000295466
-0.000157875
-3.75008e-05
-1.66682e-05
8.83602e-06
-2.82523e-05
-4.17895e-05
-1.73958e-05
-9.58234e-05
-0.000250082
-0.000238804
-7.88151e-05
5.85023e-05
0.0001411
0.000161834
9.6952e-05
3.32975e-05
-1.26925e-05
-2.38347e-05
-2.1444e-05
-2.96031e-05
-5.26348e-05
-5.47909e-05
-4.49722e-05
-1.90771e-05
-3.93752e-06
-2.61168e-05
-4.75927e-05
-1.08819e-06
3.56715e-05
6.65066e-05
9.03711e-05
5.9801e-05
6.02127e-05
9.12194e-05
1.50495e-05
-6.55789e-05
-0.000122562
-0.000178132
-0.000267704
-0.000281206
-0.000159251
-3.59484e-05
-1.42801e-05
1.24327e-05
-1.87231e-05
-4.01932e-05
-2.36464e-05
-0.000102965
-0.000265545
-0.00025422
-8.80721e-05
5.50379e-05
0.000137214
0.000161102
9.4026e-05
2.90563e-05
-1.44792e-05
-2.10766e-05
-1.84995e-05
-3.18189e-05
-5.84604e-05
-6.04716e-05
-5.62636e-05
-3.30869e-05
-8.94437e-06
-3.05557e-05
-5.32895e-05
-2.50993e-06
3.41067e-05
5.86172e-05
8.05919e-05
4.39536e-05
3.53925e-05
7.4408e-05
8.1718e-06
-7.30877e-05
-0.000118892
-0.000181653
-0.000269457
-0.00026618
-0.000150605
-3.38705e-05
-1.79185e-05
8.53677e-06
-1.04325e-05
-3.26454e-05
-2.16704e-05
-0.000103424
-0.000272479
-0.000262959
-9.81098e-05
4.75189e-05
0.000133356
0.000164008
9.4588e-05
2.82962e-05
-1.56031e-05
-1.54443e-05
-1.17724e-05
-2.98626e-05
-6.20536e-05
-6.19468e-05
-6.13363e-05
-4.70547e-05
-1.77615e-05
-3.17549e-05
-5.60881e-05
-1.85075e-06
3.59034e-05
5.42291e-05
6.90788e-05
2.96113e-05
7.45782e-06
5.73258e-05
-1.45945e-07
-7.59291e-05
-0.000113387
-0.000187981
-0.000289909
-0.000290603
-0.000157634
-4.14062e-05
-3.31724e-05
-7.95104e-06
-1.00299e-05
-2.77512e-05
-1.03205e-05
-8.7158e-05
-0.000250014
-0.000259376
-0.000103493
3.94938e-05
0.000130675
0.000167728
9.826e-05
2.89479e-05
-1.62755e-05
-1.23765e-05
-4.82883e-06
-2.67779e-05
-6.0971e-05
-5.93403e-05
-5.88868e-05
-5.25008e-05
-2.81503e-05
-3.2556e-05
-5.44317e-05
-2.21813e-06
3.7225e-05
5.64052e-05
6.24256e-05
2.35881e-05
-1.31164e-05
4.2173e-05
-9.23123e-06
-8.32435e-05