/*--------------------------------*- C++ -*----------------------------------*\
| =========                 |                                                 |
| \\      /  F ield         | OpenFOAM: The Open Source CFD Toolbox           |
|  \\    /   O peration     | Version:  5.x                                   |
|   \\  /    A nd           | Web:      www.OpenFOAM.org                      |
|    \\/     M anipulation  |                                                 |
\*---------------------------------------------------------------------------*/
FoamFile
{
    version     2.0;
    format      ascii;
    class       volVectorField;
    location    "1000";
    object      U;
}
// * * * * * * * * * * * * * * * * * * * * * * * * * * * * * * * * * * * * * //

dimensions      [0 1 -1 0 0 0 0];

internalField   nonuniform List<vector> 
60000
(
(0.0107864 0.000249703 -0.00476747)
(0.00902904 0.000117458 -0.00405083)
(0.00756391 6.51604e-05 -0.00211429)
(0.00625766 1.18193e-05 -0.000141315)
(0.00582921 -0.000119649 0.000559694)
(0.006293 -0.000195876 0.000428585)
(0.00646146 -0.000161025 0.000344736)
(0.00588379 -8.08387e-05 0.000997234)
(0.00521528 -2.58731e-05 0.0018189)
(0.00506792 1.25882e-05 0.00205846)
(0.00528329 -2.26371e-05 0.00200115)
(0.00570913 -0.000102891 0.00173024)
(0.00607028 -0.000107932 0.000955691)
(0.00603743 -5.40876e-05 1.69119e-05)
(0.00603359 -3.37161e-05 -0.000215538)
(0.00629237 -3.9892e-06 0.000431113)
(0.0062167 6.1743e-05 0.00108781)
(0.00559707 9.75321e-05 0.00103553)
(0.00534999 4.03056e-05 0.000154226)
(0.00602485 -2.19292e-05 -0.000753836)
(0.00692156 -2.03916e-05 -0.00111259)
(0.00744158 8.96501e-06 -0.00169804)
(0.00754295 2.64751e-05 -0.00254671)
(0.00703848 6.08047e-05 -0.0021052)
(0.00650495 3.24247e-05 -4.23657e-05)
(0.00670829 1.4024e-05 0.00121112)
(0.00714494 2.77674e-05 0.00118457)
(0.00725771 5.27514e-05 0.00118873)
(0.00738824 3.58483e-05 0.00127716)
(0.00780432 4.67415e-05 0.000602712)
(0.00792213 9.03353e-05 -0.000477306)
(0.00784403 4.26178e-05 -0.000669049)
(0.0082051 -3.17971e-05 -0.000303504)
(0.00896074 -3.79093e-05 -0.000475745)
(0.00970006 3.5085e-05 -0.000838289)
(0.0103251 8.13804e-05 -0.000846489)
(0.0111183 7.7978e-05 -0.000694338)
(0.0122267 9.8664e-05 -0.00101757)
(0.0130457 0.000189923 -0.0023553)
(0.0125208 0.000292596 -0.00407853)
(0.0367529 0.00124326 -0.0109756)
(0.0321902 0.000640256 -0.00911794)
(0.0280468 0.00014782 -0.00497079)
(0.023947 -0.000299945 -0.00149576)
(0.0205563 -0.000751533 1.94449e-05)
(0.0190692 -0.000788813 0.000720906)
(0.0182406 -0.000441489 0.00155152)
(0.0172585 -5.90025e-05 0.00299973)
(0.0167937 7.46391e-05 0.00415251)
(0.017129 2.2796e-05 0.0041452)
(0.0175623 -0.000257934 0.0034552)
(0.0176468 -0.000591882 0.00239447)
(0.0175319 -0.000563152 0.000899296)
(0.0173529 -0.000339515 -0.00034433)
(0.0174839 -0.000202109 -0.000258047)
(0.0178983 1.60997e-05 0.000899005)
(0.0179265 0.000311227 0.00160014)
(0.0176745 0.000392046 0.00105764)
(0.0181159 0.000109548 -0.000413913)
(0.0193197 -9.66585e-05 -0.00143827)
(0.0204634 -2.51513e-05 -0.00173391)
(0.0210451 0.000138566 -0.00267918)
(0.0210313 0.00022644 -0.00358956)
(0.0204432 0.000294024 -0.00202484)
(0.0202115 0.000170198 0.00141904)
(0.0208511 0.000121339 0.00281363)
(0.0213169 0.00019411 0.00219823)
(0.0211555 0.000260409 0.00198989)
(0.0212985 0.000177922 0.00203662)
(0.0224272 0.000248855 0.000721194)
(0.0234734 0.000444249 -0.00122763)
(0.0238018 0.000279878 -0.00159718)
(0.024356 4.56156e-06 -0.000854701)
(0.0257026 5.28117e-05 -0.000888982)
(0.0275215 0.000385329 -0.00132962)
(0.0295895 0.000589575 -0.00131308)
(0.0322516 0.000556658 -0.00119521)
(0.0358124 0.000587472 -0.00220933)
(0.0392468 0.000904227 -0.00530357)
(0.0399045 0.0013402 -0.00923646)
(0.0678646 0.00245505 -0.0147236)
(0.063188 0.00169949 -0.0145009)
(0.0590095 0.0007 -0.00933738)
(0.0524591 -0.000322729 -0.00438325)
(0.0416358 -0.00134322 -0.00221611)
(0.0332123 -0.00141145 -0.000516187)
(0.0301401 -0.00058854 0.00153684)
(0.0293447 0.000270801 0.00362471)
(0.0298089 0.000667141 0.00509487)
(0.0312846 0.000570839 0.00527523)
(0.0323546 -0.000110463 0.00460229)
(0.0315874 -0.000927743 0.00319153)
(0.0299004 -0.00106986 0.00106438)
(0.0287936 -0.000774798 -0.000690559)
(0.0285867 -0.000557824 -0.000673821)
(0.0290802 -9.33868e-05 0.00086387)
(0.0296126 0.000564041 0.00195038)
(0.030241 0.000791628 0.00142867)
(0.0314392 0.00032426 -0.000317705)
(0.0326261 -4.4282e-05 -0.00130084)
(0.0333346 6.48374e-05 -0.00119138)
(0.0337793 0.000359719 -0.00220339)
(0.0340315 0.00056197 -0.00351704)
(0.0338327 0.000620727 -0.00153335)
(0.0341217 0.000421331 0.00317873)
(0.0351398 0.00037534 0.0050603)
(0.0357904 0.000526133 0.00352232)
(0.0352618 0.000552865 0.00235374)
(0.0343599 0.000249623 0.00226752)
(0.0350001 0.000293553 0.00110095)
(0.037247 0.000715619 -0.00136205)
(0.0385716 0.000670483 -0.0023872)
(0.0384862 0.000258038 -0.00142166)
(0.0389323 0.000286876 -0.000758499)
(0.041093 0.000854944 -0.000886394)
(0.0444964 0.00131784 -0.000908372)
(0.0486457 0.00130083 -0.000712006)
(0.0543142 0.00116616 -0.00143241)
(0.0619058 0.00140491 -0.00469417)
(0.0680426 0.0021904 -0.0102168)
(0.0934224 0.00312898 -0.014912)
(0.0890426 0.00263929 -0.0185113)
(0.0892156 0.00155621 -0.0140323)
(0.0902871 0.000491998 -0.00715675)
(0.0752821 -0.00107381 -0.00470408)
(0.0530772 -0.00194896 -0.00365279)
(0.0420082 -0.00101014 -0.000397765)
(0.0404559 0.000604166 0.00302269)
(0.0421696 0.0017381 0.00484627)
(0.0455131 0.00201124 0.00515023)
(0.0489852 0.00125979 0.00492427)
(0.0491647 -4.45398e-05 0.00414887)
(0.0457588 -0.000688789 0.0020693)
(0.0422467 -0.000778486 -0.000257617)
(0.0403934 -0.000903793 -0.000811882)
(0.0401654 -0.000439672 0.000662523)
(0.0408079 0.000651134 0.00221016)
(0.0420796 0.00118942 0.00203646)
(0.0441855 0.000692406 -3.27566e-05)
(0.0459609 0.000257334 -0.00139216)
(0.0465077 0.000367168 -0.000711229)
(0.0465296 0.000727127 -0.00120498)
(0.0468516 0.00102026 -0.00325582)
(0.0469167 0.00094607 -0.00198784)
(0.0478238 0.000530924 0.0040541)
(0.0496573 0.00064053 0.00830416)
(0.0507956 0.00111071 0.00708534)
(0.0505164 0.00108139 0.00422968)
(0.048111 0.000285497 0.00262159)
(0.0462591 1.021e-05 0.0013749)
(0.0478672 0.00057405 -0.000889376)
(0.0503053 0.000886 -0.00259757)
(0.0501235 0.000630165 -0.00212328)
(0.048889 0.000646379 -0.000893365)
(0.0496484 0.00127629 -4.91788e-05)
(0.0529586 0.00204395 0.000569219)
(0.0573512 0.0023101 0.00136472)
(0.0636635 0.00206367 0.00163493)
(0.0747309 0.00175774 -0.000864005)
(0.0881239 0.00236872 -0.00726418)
(0.110272 0.00337669 -0.0118155)
(0.103535 0.00364517 -0.0197568)
(0.0968749 0.00175374 -0.0173572)
(0.109382 0.000597587 -0.00816844)
(0.111759 0.000193426 -0.00374178)
(0.0843492 -0.00113395 -0.00502769)
(0.0571116 -0.00154465 -0.003788)
(0.0486084 7.02945e-05 0.00111476)
(0.050358 0.00220839 0.00471432)
(0.0556391 0.00343903 0.00530593)
(0.0619004 0.00321806 0.00467983)
(0.0650523 0.00206956 0.0039793)
(0.0626242 0.00136414 0.00249598)
(0.057871 0.000710988 0.00052155)
(0.0540553 -0.00043379 -8.35061e-05)
(0.0522296 -0.000683759 0.00101007)
(0.0521964 0.000569582 0.00227461)
(0.053489 0.00156071 0.00220053)
(0.0558013 0.00122968 3.32681e-05)
(0.0580215 0.000803647 -0.00196098)
(0.0590364 0.00085885 -0.00121043)
(0.059451 0.00117528 -0.000611198)
(0.0604358 0.00164772 -0.0024821)
(0.0605353 0.00153476 -0.00280129)
(0.0603554 0.000330635 0.00219937)
(0.0630184 0.000305217 0.00906473)
(0.0662981 0.00177969 0.0119986)
(0.0675792 0.00216388 0.0100699)
(0.0648067 0.00059887 0.00574955)
(0.0591578 -0.000566835 0.0021345)
(0.0574266 -0.00010684 3.54279e-05)
(0.059227 0.000611872 -0.00168071)
(0.0595501 0.000777988 -0.00231645)
(0.0577059 0.000909892 -0.00174479)
(0.0566853 0.00161314 -5.58662e-05)
(0.0578882 0.00282039 0.00196459)
(0.0600528 0.00364712 0.00471228)
(0.0649411 0.00328906 0.0077554)
(0.0776318 0.00200139 0.00690765)
(0.097637 0.00193719 -0.000530742)
(0.117079 0.00323101 -0.00606346)
(0.113756 0.00580313 -0.017422)
(0.097664 0.00323402 -0.0206231)
(0.100238 -0.00100711 -0.0136671)
(0.120797 -0.00068609 -0.00452126)
(0.11449 0.000485854 -0.00286655)
(0.0818562 -0.000738024 -0.00454242)
(0.0597405 -0.000864891 -0.00234243)
(0.0558154 0.00126394 0.00210149)
(0.0607662 0.00356668 0.00446347)
(0.0689406 0.00436992 0.00475785)
(0.0746489 0.00408512 0.00430407)
(0.074233 0.0040197 0.0029124)
(0.0706167 0.00332233 0.000936908)
(0.0672049 0.00124945 0.000574447)
(0.0645511 -0.000206416 0.00207788)
(0.0633951 0.000513394 0.00283174)
(0.0643437 0.0019076 0.00164414)
(0.0666343 0.00211204 -0.000939721)
(0.068575 0.00175405 -0.00293619)
(0.069527 0.00154072 -0.00231752)
(0.0703739 0.00159637 -0.00118223)
(0.0725791 0.00225393 -0.00192445)
(0.0742143 0.00258539 -0.00225314)
(0.0723477 0.000691618 0.000181648)
(0.07191 -0.000640992 0.00533425)
(0.0779091 0.00155088 0.0122947)
(0.084232 0.00341279 0.0165844)
(0.0832053 0.00175895 0.0134011)
(0.0748704 -0.000562796 0.00577261)
(0.0682884 -0.000649464 0.00171882)
(0.0675174 -6.13804e-06 0.000696891)
(0.0685106 0.000155853 -0.00092429)
(0.0671849 0.000469276 -0.00265103)
(0.0648898 0.00182556 -0.00132047)
(0.0637032 0.00391378 0.00256164)
(0.0632505 0.00540954 0.00834713)
(0.0662768 0.00432192 0.0137914)
(0.077607 0.00116379 0.0138904)
(0.0988258 0.000249685 0.0066368)
(0.114174 0.00204736 -0.000383609)
(0.118532 0.00783486 -0.0129166)
(0.105965 0.00771172 -0.0219359)
(0.0953602 0.000618999 -0.0219056)
(0.111687 -0.00267212 -0.0129579)
(0.127053 0.000352147 -0.00525936)
(0.109225 0.00096216 -0.0033358)
(0.0801362 -0.00123448 -0.00270559)
(0.066416 -0.00091432 -0.00037246)
(0.0671945 0.00173142 0.00219994)
(0.0740983 0.00406843 0.00408669)
(0.0797207 0.00557756 0.0054203)
(0.0800318 0.00668518 0.00462821)
(0.0784627 0.0060143 0.00140056)
(0.0775909 0.00324972 -0.000282448)
(0.075811 0.000890527 0.00193146)
(0.0737421 0.000638035 0.00407213)
(0.073777 0.00192651 0.00229)
(0.0756872 0.0029662 -0.00203111)
(0.0772868 0.00304353 -0.00437854)
(0.0779144 0.00242949 -0.00337728)
(0.078811 0.00193769 -0.00236642)
(0.0816129 0.00252875 -0.0024415)
(0.0847167 0.00332917 -0.00110736)
(0.0831825 0.00163153 0.000809592)
(0.0790406 -0.000837779 0.00153488)
(0.0835158 0.000362213 0.00694039)
(0.0944549 0.00316477 0.016646)
(0.0965556 0.00298518 0.0198333)
(0.0877892 0.000767605 0.0119496)
(0.0790698 -0.000128149 0.00435067)
(0.0768754 -0.000424734 0.00327165)
(0.0785688 -0.00102511 0.0018655)
(0.0773598 -0.000555159 -0.00246399)
(0.0732399 0.00190447 -0.00313677)
(0.0705788 0.00537085 0.00222274)
(0.0706076 0.00757932 0.0103178)
(0.0735202 0.00561379 0.0154668)
(0.0805296 0.000408291 0.0153466)
(0.0958731 -0.00185812 0.010095)
(0.106896 0.00164042 0.00377927)
(0.115504 0.0095808 -0.00960616)
(0.108806 0.0114575 -0.0182609)
(0.0980652 0.00420736 -0.0199124)
(0.104559 -0.00269646 -0.016257)
(0.126299 -0.000999493 -0.00855721)
(0.126181 0.00137304 -0.00214325)
(0.101459 -0.00176327 0.000438842)
(0.0796008 -0.00340027 0.000493926)
(0.0740592 -0.00063051 0.00122218)
(0.0770205 0.00350089 0.00377018)
(0.0810213 0.00719481 0.00631566)
(0.0838799 0.00912724 0.00482438)
(0.0871607 0.0077027 -0.000302988)
(0.0891836 0.00436786 -0.00343904)
(0.0874964 0.00187197 -0.001118)
(0.0837776 0.000752685 0.00374794)
(0.0817875 0.00122609 0.00434472)
(0.0824109 0.00290742 -0.000928583)
(0.0834758 0.003921 -0.00488412)
(0.0837157 0.00325373 -0.00404318)
(0.0844957 0.0021318 -0.00329317)
(0.0873585 0.00237545 -0.00345629)
(0.091671 0.0030617 -0.000375164)
(0.0921431 0.00175675 0.00302463)
(0.0874217 -0.000250169 0.00111851)
(0.0877404 -7.36412e-05 0.0016799)
(0.0964968 0.00186076 0.0116047)
(0.0998112 0.00297148 0.019527)
(0.0930247 0.00250101 0.0153783)
(0.0858445 0.00138943 0.00746589)
(0.0850642 -0.000479401 0.00494889)
(0.0878665 -0.00223303 0.00324363)
(0.0864621 -0.00135693 -0.00189545)
(0.0803619 0.00223817 -0.00387549)
(0.0770312 0.00674241 0.00137216)
(0.0793952 0.00925669 0.00811902)
(0.0831936 0.00720115 0.0120057)
(0.0851662 0.00120154 0.0148063)
(0.0918507 -0.00240227 0.0133875)
(0.0986454 0.00149759 0.0107497)
(0.108184 0.00984159 -0.00361884)
(0.105635 0.0131322 -0.013796)
(0.100068 0.00587518 -0.0171458)
(0.101494 -0.00319626 -0.0156616)
(0.120641 -0.00247186 -0.0102633)
(0.136746 0.00123178 -0.0016265)
(0.124911 -0.00231045 0.00330238)
(0.0958568 -0.00611326 0.00217403)
(0.0794551 -0.00376752 0.000522458)
(0.0783054 0.00222234 0.00167373)
(0.0827175 0.00780012 0.00326966)
(0.0892421 0.00999957 0.00140719)
(0.096659 0.00772538 -0.00159084)
(0.101083 0.00445758 -0.00274776)
(0.0995286 0.00301099 -0.000814563)
(0.0935552 0.00159038 0.00422122)
(0.0885353 0.000521429 0.006702)
(0.0872416 0.00192212 0.00161387)
(0.0873557 0.00383563 -0.00414606)
(0.0870874 0.003547 -0.00451356)
(0.0878197 0.0019791 -0.00438687)
(0.0906299 0.00182261 -0.00487761)
(0.0962974 0.00203464 -0.000560283)
(0.0997449 0.00106218 0.00468674)
(0.0969061 0.00050643 0.00268704)
(0.0943991 0.00100929 0.000750319)
(0.0944424 0.002046 0.00779052)
(0.0924224 0.00318903 0.0149209)
(0.0886631 0.00413853 0.01404)
(0.0872766 0.00348313 0.00976835)
(0.0900121 0.000218877 0.00588744)
(0.0940244 -0.00293574 0.00225311)
(0.093169 -0.00190133 -0.00140695)
(0.0872226 0.00264144 -0.00221337)
(0.0837066 0.00735763 0.000549623)
(0.0854088 0.00963236 0.00247595)
(0.0890585 0.00861961 0.00572575)
(0.0892909 0.00327816 0.0140878)
(0.0889909 -0.00127214 0.0187749)
(0.0933883 0.00350349 0.0165103)
(0.100507 0.0124851 0.000865244)
(0.105374 0.0160846 -0.0138428)
(0.111352 0.00812743 -0.0171406)
(0.109169 -0.00388032 -0.011389)
(0.111625 -0.00664367 -0.00585291)
(0.135881 -0.00179581 -0.000724329)
(0.149769 -0.0016591 0.00257179)
(0.126246 -0.00548087 0.00166355)
(0.0947395 -0.0060361 0.000425043)
(0.0823571 -0.00101893 0.00141819)
(0.0838328 0.00636163 0.00261894)
(0.0887565 0.0102981 0.00425531)
(0.0951448 0.00874778 0.00735504)
(0.101397 0.00609001 0.00810321)
(0.102787 0.0056245 0.0073608)
(0.0980359 0.00374046 0.00883809)
(0.0923092 0.000427743 0.00951395)
(0.0900736 0.000710539 0.00402918)
(0.0897727 0.00353112 -0.00277563)
(0.0894617 0.00368403 -0.00460753)
(0.0899087 0.00125676 -0.00584506)
(0.0924948 6.18025e-05 -0.00731)
(0.100531 -0.000388919 -0.0027252)
(0.106988 -0.000457816 0.00460766)
(0.104546 0.00140247 0.00521773)
(0.0993384 0.00337381 0.00301803)
(0.0943773 0.00369722 0.00497424)
(0.0894974 0.00330139 0.00827379)
(0.0872191 0.00390105 0.010061)
(0.0903123 0.00321913 0.00869985)
(0.0962423 -0.000482109 0.00329126)
(0.0997562 -0.00373417 -0.000857712)
(0.0992958 -0.00194739 -0.000807457)
(0.094979 0.00292878 0.000216033)
(0.0903322 0.0069128 -0.00122389)
(0.0891135 0.00875324 -0.00369877)
(0.0920341 0.00862493 0.000583971)
(0.0934179 0.00478872 0.0130006)
(0.0905657 0.000733671 0.0217466)
(0.092341 0.00452544 0.0136884)
(0.094636 0.0103033 -0.00453301)
(0.101412 0.0127193 -0.0181438)
(0.118416 0.0078624 -0.0193074)
(0.12859 -0.00102045 -0.0118634)
(0.120524 -0.00743662 -0.0033282)
(0.124378 -0.00764828 0.0016564)
(0.143935 -0.00510621 0.00271531)
(0.144811 -0.00367714 0.000309487)
(0.121808 -0.00453028 -0.00143873)
(0.0996555 -0.00292161 0.0024376)
(0.0888049 0.00428905 0.00773853)
(0.0882146 0.0087541 0.0114251)
(0.0954617 0.00537055 0.0151232)
(0.102926 0.00213325 0.0160535)
(0.105339 0.00417107 0.0139506)
(0.102889 0.00456496 0.0126893)
(0.0971466 0.000542346 0.0111834)
(0.0912974 -0.000642463 0.00602519)
(0.0900776 0.00259204 -0.000777839)
(0.0930261 0.00357375 -0.00498637)
(0.0956419 0.000802254 -0.00800782)
(0.0973364 -0.00128504 -0.00939459)
(0.104096 -0.00184426 -0.00524564)
(0.110403 -0.000717216 0.00255953)
(0.107122 0.00289701 0.00763594)
(0.100867 0.00615319 0.0079623)
(0.0991439 0.00700896 0.00331365)
(0.100232 0.00652905 -0.00196935)
(0.101848 0.00658741 -0.00139949)
(0.108738 0.00501301 0.000541983)
(0.116926 0.00014006 -0.00298194)
(0.116214 -0.0038759 -0.00575453)
(0.108682 -0.00229559 -0.00143349)
(0.100763 0.00248565 0.00309379)
(0.0944612 0.0062504 -0.000216768)
(0.092066 0.00797381 -0.00598097)
(0.0950942 0.00782083 -0.0019305)
(0.0978591 0.0054941 0.012099)
(0.0945219 0.00288209 0.0211586)
(0.0927687 0.00584928 0.00961539)
(0.0896495 0.0102081 -0.00272234)
(0.0918044 0.0117088 -0.00858077)
(0.105524 0.00568063 -0.00912522)
(0.125905 -0.00228455 -0.00909665)
(0.133796 -0.00630695 -0.00665264)
(0.128646 -0.00827973 -0.00268768)
(0.129086 -0.00836304 0.000501939)
(0.134543 -0.00570307 -0.000163009)
(0.135355 -0.00358705 -0.00444679)
(0.125033 -0.00218753 -0.00193909)
(0.108557 0.00306209 0.00890485)
(0.10215 0.00686619 0.0161114)
(0.107429 0.00273358 0.0159319)
(0.108991 -0.00114585 0.0144952)
(0.105647 0.00162236 0.0135482)
(0.104467 0.00370448 0.0125825)
(0.101901 0.000509192 0.011295)
(0.0946082 -0.00136931 0.00775777)
(0.0917931 0.000890433 0.00151285)
(0.0965472 0.00170594 -0.00418794)
(0.100785 -0.000311435 -0.00794408)
(0.101358 -0.00137202 -0.00936297)
(0.104273 -0.00154618 -0.00686672)
(0.108249 -0.000263399 0.00021196)
(0.10646 0.00379868 0.00874634)
(0.101677 0.00772467 0.0113733)
(0.0998211 0.00868845 0.0032946)
(0.100983 0.00838589 -0.00747436)
(0.104262 0.00795949 -0.0105847)
(0.113198 0.00420323 -0.00840289)
(0.125221 -0.00190741 -0.0082674)
(0.129165 -0.00395693 -0.00850559)
(0.120131 -0.00137272 -0.00336905)
(0.106291 0.00188307 0.00139741)
(0.0964677 0.00382589 -0.00107296)
(0.0936897 0.00494529 -0.00487576)
(0.0965227 0.00505508 -0.000763762)
(0.0994647 0.004706 0.0102926)
(0.0973064 0.00417222 0.0163859)
(0.0869796 0.00990652 0.00456944)
(0.084341 0.0141843 0.00123893)
(0.0918469 0.0133332 -0.000896235)
(0.108115 0.00359342 -0.00422285)
(0.123907 -0.00728669 -0.00724453)
(0.134595 -0.0094073 -0.00756706)
(0.136801 -0.00634192 -0.00634197)
(0.132031 -0.00609325 -0.00315281)
(0.127448 -0.00804084 8.13578e-05)
(0.131618 -0.00792217 -0.00288526)
(0.137431 -0.00402341 -0.00583774)
(0.130236 0.00261701 0.00288329)
(0.120717 0.00669028 0.0147333)
(0.120802 0.00307692 0.01718)
(0.119124 -0.00137056 0.0138896)
(0.110825 0.000487739 0.0117379)
(0.107948 0.00311362 0.0102973)
(0.108023 0.000552062 0.0094296)
(0.10201 -0.00261022 0.00882635)
(0.0982709 -0.00159409 0.00443812)
(0.102713 -0.000319801 -0.00274512)
(0.106067 -0.000887964 -0.00771611)
(0.104792 -0.000676146 -0.00879464)
(0.105033 -0.000138212 -0.00620655)
(0.106688 0.00155154 0.00128572)
(0.104425 0.00648941 0.0105073)
(0.100296 0.0111339 0.0110918)
(0.0989982 0.0119516 3.22937e-05)
(0.100213 0.0102523 -0.0117059)
(0.10437 0.00748176 -0.01438)
(0.112731 0.00125313 -0.00937989)
(0.122539 -0.00622994 -0.00400317)
(0.126996 -0.00702257 -0.0027762)
(0.122219 -0.00137548 -0.00268403)
(0.111836 0.00269864 -0.00253824)
(0.102243 0.0026498 -0.00293454)
(0.096866 0.00134196 -0.00239077)
(0.0952821 0.00109297 0.00029806)
(0.0952526 0.00310038 0.00478557)
(0.0925693 0.00592631 0.00682641)
(0.0857768 0.0144244 0.00685161)
(0.0899334 0.0158297 0.00948291)
(0.104531 0.01267 0.00748977)
(0.124055 0.00430951 0.000576482)
(0.135005 -0.00529165 -0.00459753)
(0.135221 -0.00954305 -0.00509762)
(0.135202 -0.00583069 -0.00501779)
(0.137641 -0.00218513 -0.00543519)
(0.135404 -0.00470421 -0.00238612)
(0.132749 -0.00922094 -0.00011246)
(0.1376 -0.00822379 -0.00312219)
(0.137745 -0.00118664 -0.000262914)
(0.129913 0.00445413 0.0107479)
(0.127704 0.00370329 0.0164294)
(0.126743 0.000864196 0.0143925)
(0.117988 0.00152991 0.0121699)
(0.114238 0.00381101 0.00913118)
(0.118389 0.00228468 0.00572208)
(0.116232 -0.00240935 0.0065699)
(0.109794 -0.00487646 0.00692418)
(0.11013 -0.00353167 3.6763e-05)
(0.112098 -0.000596719 -0.00874623)
(0.110577 0.00161772 -0.0106059)
(0.108962 0.0021313 -0.00430556)
(0.105364 0.00353139 0.00500252)
(0.0991063 0.00807145 0.0103955)
(0.0959156 0.0119949 0.00661653)
(0.0981005 0.0123569 -0.00280527)
(0.102789 0.0114835 -0.00978363)
(0.107994 0.0102634 -0.0109064)
(0.116056 0.00501856 -0.00732309)
(0.126009 -0.00362109 -0.00161344)
(0.129928 -0.00626646 0.000904289)
(0.125423 -0.000389581 -0.00146482)
(0.116151 0.0049571 -0.00421425)
(0.106026 0.00447195 -0.00364472)
(0.0988079 0.00147622 -0.00167825)
(0.0946244 0.0013277 -0.00138404)
(0.091435 0.0052514 -0.000143689)
(0.087926 0.0103051 0.00309177)
(0.0910059 0.014972 0.00805042)
(0.0997253 0.0122932 0.00912191)
(0.111643 0.00771174 0.00440453)
(0.127185 0.00249542 -0.00233583)
(0.14048 -0.00226082 -0.00563521)
(0.139616 -0.00616371 -0.00541838)
(0.130914 -0.00669594 -0.00563937)
(0.131434 -0.00486433 -0.00793826)
(0.137824 -0.00484915 -0.00754086)
(0.138966 -0.00730726 -0.00261351)
(0.138351 -0.00732587 -0.000229733)
(0.135979 -0.00205125 0.00137159)
(0.128947 0.00359209 0.00880863)
(0.126127 0.00447745 0.0138434)
(0.127339 0.00306863 0.0112912)
(0.121904 0.00395181 0.00973038)
(0.117218 0.00594876 0.00931284)
(0.12503 0.00537873 0.00535655)
(0.134773 0.00167308 0.00322864)
(0.132831 -0.00346011 0.00657618)
(0.123582 -0.0059556 0.00587169)
(0.115501 -0.00323955 -0.00269178)
(0.109622 0.00181908 -0.00881234)
(0.10603 0.00522826 -0.0053053)
(0.100772 0.00801921 0.00254675)
(0.0943689 0.0113156 0.00607812)
(0.0933902 0.0135097 0.00387528)
(0.0972984 0.0135986 0.00121625)
(0.101575 0.0133113 0.00101948)
(0.107049 0.0118034 0.00110563)
(0.117661 0.0056143 0.00048836)
(0.128774 -0.00391396 0.00199925)
(0.130477 -0.00716446 0.00370429)
(0.12241 -0.000386796 -0.000381929)
(0.111052 0.00677833 -0.00672722)
(0.102398 0.00625657 -0.00732921)
(0.0972104 0.0012285 -0.00374982)
(0.092184 0.000854654 -0.00195)
(0.0880756 0.00716832 -0.00108744)
(0.0870535 0.0134129 0.00303341)
(0.102316 0.0128823 0.00226275)
(0.111992 0.00956097 -0.00238064)
(0.118605 0.00528413 -0.00778477)
(0.125716 0.00104305 -0.0106055)
(0.13802 -0.00155089 -0.00920847)
(0.145694 -0.00159777 -0.00606723)
(0.139177 -0.00256095 -0.00483089)
(0.131558 -0.0064381 -0.00673667)
(0.133262 -0.00993951 -0.00892207)
(0.139193 -0.0106057 -0.00621465)
(0.144398 -0.00843068 -0.000579659)
(0.143788 -0.00329281 0.00331921)
(0.134211 0.0017947 0.00764978)
(0.125406 0.00364102 0.00974282)
(0.122336 0.00432596 0.00499529)
(0.11796 0.00598831 0.000271211)
(0.112739 0.00579952 0.00105342)
(0.116755 0.00137575 0.00186406)
(0.131983 -0.00364872 0.000200919)
(0.146268 -0.0058229 0.00191116)
(0.142966 -0.00586076 0.00491862)
(0.12539 -0.00361799 0.000719906)
(0.110285 0.000977033 -0.00613152)
(0.104219 0.00495197 -0.00683709)
(0.102595 0.00786035 -0.00328875)
(0.100887 0.0102561 -0.001724)
(0.100249 0.0121185 -0.00121363)
(0.101307 0.0138572 0.000868668)
(0.102675 0.0156864 0.00267964)
(0.10787 0.0152149 0.00167178)
(0.121549 0.0100022 -0.0011079)
(0.13431 0.0022588 -0.00201588)
(0.130862 -0.00116396 -0.00019324)
(0.115893 0.00334246 -0.000315856)
(0.105516 0.00869751 -0.00394831)
(0.104931 0.00767812 -0.00606942)
(0.106857 0.00201662 -0.00403871)
(0.102692 -0.000510633 -0.00052077)
(0.0954997 0.00484058 0.00203651)
(0.0947345 0.0116794 0.00350127)
(0.119989 0.00726696 0.000940444)
(0.125585 0.00431221 -0.00454388)
(0.127849 0.00167987 -0.0105959)
(0.128446 -0.00115528 -0.0135377)
(0.131622 -0.00359692 -0.0116517)
(0.13819 -0.00222251 -0.00692227)
(0.143989 0.00117422 -0.00246156)
(0.147187 -7.92697e-05 -0.0009897)
(0.147545 -0.00638087 -0.00340541)
(0.14577 -0.0108076 -0.00488138)
(0.144535 -0.0094676 -0.00154369)
(0.143314 -0.00350701 0.00238182)
(0.137737 0.00190918 0.00531085)
(0.129892 0.0036542 0.00816248)
(0.125695 0.00414776 0.00657886)
(0.126192 0.00586973 0.000752843)
(0.128705 0.00584653 -0.00235087)
(0.13157 0.000575469 -0.00137318)
(0.135583 -0.00646225 -7.23224e-05)
(0.142955 -0.0088494 0.00151204)
(0.147016 -0.00664079 0.00301026)
(0.138113 -0.00382688 -0.00112558)
(0.121806 -0.000766831 -0.00832602)
(0.110585 0.00344269 -0.00972485)
(0.108101 0.00703362 -0.00596604)
(0.110193 0.0093316 -0.00358796)
(0.111049 0.0114518 -0.00365626)
(0.108152 0.0142281 -0.00421038)
(0.105033 0.0155015 -0.00589081)
(0.108653 0.0125728 -0.00802984)
(0.122039 0.00667261 -0.00837328)
(0.135919 0.00263937 -0.00664407)
(0.135077 0.00333494 -0.00412514)
(0.121662 0.00635626 -0.00314585)
(0.111821 0.00713054 -0.00442426)
(0.112077 0.00442042 -0.00521684)
(0.117822 0.00105043 -0.00279711)
(0.120384 -1.82147e-05 0.0013604)
(0.116944 0.00304416 0.00394395)
(0.115393 0.00726617 0.00389682)
(0.137728 0.00340298 0.000579923)
(0.139315 0.00250879 -0.00308638)
(0.136559 0.00246024 -0.00623468)
(0.132717 0.00226805 -0.00793977)
(0.131519 0.00117259 -0.00799427)
(0.134483 -2.44144e-05 -0.00640331)
(0.14087 -0.00122492 -0.0028457)
(0.14801 -0.00321966 0.00133923)
(0.151866 -0.00582254 0.0020521)
(0.15011 -0.00738133 -0.00137869)
(0.145451 -0.00626033 -0.00309102)
(0.141604 -0.00248378 -0.000520842)
(0.138748 0.00147797 0.00389033)
(0.136244 0.00275526 0.0085027)
(0.134318 0.00187583 0.0109658)
(0.135752 0.00116224 0.00903788)
(0.142208 0.00135364 0.00551639)
(0.150177 0.000942387 0.0036583)
(0.15343 -0.00202487 0.00357417)
(0.151477 -0.00532703 0.00479344)
(0.148158 -0.00529718 0.00559939)
(0.142098 -0.00274221 0.00121896)
(0.130437 0.00039234 -0.00719285)
(0.118208 0.00324483 -0.0107212)
(0.112469 0.00545177 -0.00664923)
(0.112723 0.00784653 -0.00125292)
(0.113933 0.0117099 9.39373e-05)
(0.113893 0.0163528 -0.0028386)
(0.115494 0.0180066 -0.00762205)
(0.121203 0.0134267 -0.0107829)
(0.129648 0.00571224 -0.0104569)
(0.136781 0.00212575 -0.00765921)
(0.137211 0.00475965 -0.00448892)
(0.131623 0.00815528 -0.0027399)
(0.127039 0.00778808 -0.00305622)
(0.126256 0.00421905 -0.00425975)
(0.128267 0.000518883 -0.00365657)
(0.130698 -0.000669867 -0.000436433)
(0.13189 0.000938194 0.00279917)
(0.133922 0.00325804 0.00318966)
(0.140309 0.00111492 0.00096249)
(0.141823 0.0012502 -0.00326415)
(0.142984 0.00266895 -0.00483456)
(0.142811 0.00364932 -0.00347608)
(0.141082 0.00329513 -0.00207442)
(0.140052 0.00254015 -0.00298986)
(0.14164 0.00121378 -0.00498858)
(0.14484 -0.00175035 -0.00487722)
(0.146448 -0.00558578 -0.00249422)
(0.144403 -0.00782048 -0.00171143)
(0.140547 -0.0066733 -0.00339066)
(0.139109 -0.00276778 -0.00388632)
(0.140991 0.00140422 -0.00117504)
(0.142975 0.00297346 0.00345238)
(0.14185 0.00170887 0.00742186)
(0.138729 -0.000372766 0.00822941)
(0.137402 -0.00147927 0.00614466)
(0.140882 -0.00160458 0.00367407)
(0.148415 -0.00186807 0.00296324)
(0.155192 -0.00231664 0.00469348)
(0.156078 -0.00205109 0.00712537)
(0.150656 -0.000865847 0.00550184)
(0.141132 0.00142475 -0.00194057)
(0.130055 0.0034438 -0.00879723)
(0.120949 0.00456963 -0.00841527)
(0.115846 0.00673992 -0.00225424)
(0.114597 0.0113542 0.00256238)
(0.117262 0.0164898 0.0020206)
(0.123957 0.017945 -0.00182761)
(0.131464 0.0137745 -0.00511475)
(0.135703 0.00668702 -0.00610731)
(0.136561 0.00191625 -0.00542072)
(0.13588 0.00187445 -0.00421436)
(0.134676 0.00394637 -0.00297698)
(0.133583 0.00478793 -0.00129602)
(0.133278 0.00401537 0.00074439)
(0.134426 0.00256312 0.00249393)
(0.136624 0.00142136 0.00403656)
(0.138399 0.00141876 0.00531522)
(0.139248 0.00157742 0.00461762)
(0.141945 0.00310018 0.00278146)
(0.142695 0.000792654 -0.000783023)
(0.143556 -0.000126699 -0.00407734)
(0.145264 0.00162845 -0.00436804)
(0.145884 0.00413406 -0.00190064)
(0.144359 0.00487105 -0.000115342)
(0.142758 0.00307619 -0.00169124)
(0.143143 0.000114963 -0.00475623)
(0.144906 -0.00252101 -0.00578246)
(0.14514 -0.00476209 -0.00487735)
(0.1425 -0.00629433 -0.00424342)
(0.140089 -0.00582262 -0.00397922)
(0.141365 -0.002882 -0.00231362)
(0.145435 0.00117004 0.000972425)
(0.147707 0.00356881 0.00406407)
(0.145961 0.00346532 0.00471614)
(0.142789 0.00214006 0.00304711)
(0.142012 7.44627e-05 0.00144089)
(0.144386 -0.00188774 0.00201547)
(0.148273 -0.00175029 0.00479225)
(0.152064 0.000825033 0.00779152)
(0.154828 0.00278975 0.0081814)
(0.154506 0.00205725 0.0037844)
(0.148942 0.00102264 -0.00380033)
(0.139476 0.00236234 -0.00846764)
(0.130365 0.00664848 -0.00682695)
(0.125515 0.0122919 -0.00243597)
(0.126248 0.0165561 -1.27478e-05)
(0.130594 0.0168248 0.000278131)
(0.134607 0.013185 0.000259928)
(0.135941 0.00802066 3.79225e-05)
(0.135026 0.00395449 -0.000775258)
(0.133627 0.00229634 -0.00144638)
(0.133032 0.00218917 -0.000986884)
(0.133063 0.00197634 0.000716887)
(0.133 0.00117394 0.00235377)
(0.133145 0.00030882 0.00287895)
(0.13447 0.000366178 0.00296202)
(0.137109 0.00197216 0.0036671)
(0.139979 0.00367004 0.00422718)
(0.14227 0.00128782 0.00164357)
(0.144217 0.0017653 0.000138678)
(0.144099 0.0017984 -0.00272857)
(0.143173 0.00267953 -0.00555841)
(0.142995 0.00491977 -0.00615796)
(0.143747 0.00701819 -0.00390485)
(0.14476 0.0065588 -0.000779675)
(0.145688 0.0029654 0.000219346)
(0.146791 -0.00153714 -0.00194848)
(0.148131 -0.00421794 -0.00579259)
(0.148289 -0.00467934 -0.0084605)
(0.146144 -0.0047014 -0.00777634)
(0.143818 -0.0049892 -0.00387044)
(0.144545 -0.00384812 0.00123098)
(0.14814 -0.000824772 0.00492179)
(0.151029 0.00238977 0.00538813)
(0.150773 0.00437793 0.00291221)
(0.148592 0.00426717 2.51993e-05)
(0.146904 0.00202806 -0.00035244)
(0.14721 -0.000593782 0.00289501)
(0.15013 -0.00166039 0.00794593)
(0.155373 -0.000854408 0.0105325)
(0.158933 0.000623216 0.00756112)
(0.154547 0.00215835 0.000825888)
(0.142534 0.00414333 -0.00444815)
(0.130209 0.00755241 -0.00518073)
(0.123287 0.0117436 -0.00279963)
(0.122091 0.0144204 5.8837e-05)
(0.123821 0.0142458 0.00228449)
(0.125865 0.0117377 0.00401218)
(0.12768 0.00823414 0.00506667)
(0.129695 0.00489049 0.00500021)
(0.131942 0.0024019 0.0040749)
(0.134168 0.000809007 0.00337088)
(0.136026 -0.000272047 0.00379688)
(0.136869 -0.00123656 0.00505646)
(0.136649 -0.00215688 0.00564472)
(0.136367 -0.00261524 0.00473733)
(0.137122 -0.00189993 0.00327254)
(0.139301 -0.000171276 0.00229718)
(0.145032 -0.00162986 0.00355054)
(0.14541 -0.00167343 0.00153462)
(0.14494 -0.00125265 -0.00115393)
(0.143688 0.000547007 -0.00401432)
(0.142708 0.00365019 -0.00587485)
(0.143244 0.00646493 -0.00562146)
(0.145486 0.00671616 -0.0033222)
(0.148709 0.00353802 -0.000275023)
(0.151885 -0.0013961 0.00160926)
(0.154426 -0.00531625 0.000563521)
(0.155948 -0.00601098 -0.00333712)