/*--------------------------------*- C++ -*----------------------------------*\
| =========                 |                                                 |
| \\      /  F ield         | OpenFOAM: The Open Source CFD Toolbox           |
|  \\    /   O peration     | Version:  5.x                                   |
|   \\  /    A nd           | Web:      www.OpenFOAM.org                      |
|    \\/     M anipulation  |                                                 |
\*---------------------------------------------------------------------------*/
FoamFile
{
    version     2.0;
    format      ascii;
    class       surfaceScalarField;
    location    "0";
    object      phi;
}
// * * * * * * * * * * * * * * * * * * * * * * * * * * * * * * * * * * * * * //

dimensions      [0 3 -1 0 0 0 0];

internalField   nonuniform List<scalar> 
261175
(
5.35253e-13
3.83409e-05
-5.26065e-12
4.2175e-05
-1.16008e-11
4.63925e-05
-1.85211e-11
5.10317e-05
-2.60528e-11
5.61349e-05
-3.42205e-11
6.17484e-05
-4.30439e-11
6.79232e-05
-5.25301e-11
7.47155e-05
-6.2668e-11
8.21871e-05
-7.34374e-11
9.04058e-05
-8.47964e-11
9.94464e-05
-9.66701e-11
0.000109391
-1.08969e-10
0.00012033
-1.21557e-10
0.000132363
-1.34274e-10
0.000145599
-1.46886e-10
0.000160159
-1.59148e-10
0.000176175
-1.70678e-10
0.000193793
-1.81138e-10
0.000213172
-1.89945e-10
0.000234489
-1.96714e-10
0.000257938
-2.00598e-10
0.000283732
-2.01331e-10
0.000312105
-1.97735e-10
0.000343316
-1.90015e-10
0.000377647
-1.76591e-10
0.000415412
-1.58738e-10
0.000456953
-1.3441e-10
0.000502649
-1.06638e-10
0.000552914
-7.26513e-11
0.000608205
-3.66448e-11
0.000669026
6.31961e-12
0.000735928
5.98365e-11
0.000809521
1.31395e-10
0.000890473
2.26007e-10
0.00097952
3.46237e-10
0.00107747
4.88141e-10
0.00118522
6.30844e-10
0.00118522
7.56455e-10
0.00107747
8.66719e-10
0.00097952
9.65247e-10
0.000890473
1.05629e-09
0.000809521
1.14327e-09
0.000735928
1.219e-09
0.000669025
1.28536e-09
0.000608205
1.33088e-09
0.000552914
1.36223e-09
0.000502649
1.37057e-09
0.000456953
1.36875e-09
0.000415412
1.34753e-09
0.000377647
1.3181e-09
0.000343316
1.27336e-09
0.000312105
1.22187e-09
0.000283732
1.15966e-09
0.000257938
1.09278e-09
0.000234489
1.01975e-09
0.000213172
9.44604e-10
0.000193793
8.67235e-10
0.000176175
7.90188e-10
0.000160159
7.13869e-10
0.000145599
6.39766e-10
0.000132363
5.68296e-10
0.00012033
5.00237e-10
0.000109391
4.35823e-10
9.94464e-05
3.75368e-10
9.04058e-05
3.18914e-10
8.21871e-05
2.66489e-10
7.47156e-05
2.17994e-10
6.79232e-05
1.73303e-10
6.17484e-05
1.32229e-10
5.61349e-05
9.45865e-11
5.10317e-05
6.01442e-11
4.63925e-05
2.86896e-11
4.2175e-05
3.83409e-05
-1.5116e-13
3.83409e-05
-7.10918e-12
4.2175e-05
-1.46663e-11
4.63925e-05
-2.28352e-11
5.10317e-05
-3.16336e-11
5.61349e-05
-4.10659e-11
6.17484e-05
-5.11196e-11
6.79232e-05
-6.17723e-11
7.47155e-05
-7.29862e-11
8.21871e-05
-8.47108e-11
9.04058e-05
-9.68869e-11
9.94464e-05
-1.09427e-10
0.000109391
-1.22232e-10
0.00012033
-1.35161e-10
0.000132363
-1.48061e-10
0.000145599
-1.60677e-10
0.000160159
-1.72786e-10
0.000176175
-1.83958e-10
0.000193793
-1.93909e-10
0.000213172
-2.01964e-10
0.000234489
-2.07866e-10
0.000257938
-2.10605e-10
0.000283732
-2.10179e-10
0.000312105
-2.05114e-10
0.000343316
-1.96095e-10
0.000377647
-1.81054e-10
0.000415412
-1.62076e-10
0.000456953
-1.36528e-10
0.000502649
-1.08574e-10
0.000552914
-7.48603e-11
0.000608205
-3.93318e-11
0.000669025
1.82485e-12
0.000735928
5.4906e-11
0.000809521
1.28227e-10
0.000890473
2.24997e-10
0.00097952
3.46589e-10
0.00107747
4.89032e-10
0.00118522
6.3163e-10
0.00118522
7.56649e-10
0.00107747
8.66664e-10
0.00097952
9.65945e-10
0.000890473
1.05798e-09
0.000809521
1.14836e-09
0.000735928
1.22764e-09
0.000669025
1.29608e-09
0.000608205
1.34315e-09
0.000552914
1.37744e-09
0.000502649
1.38859e-09
0.000456953
1.3908e-09
0.000415412
1.37308e-09
0.000377647
1.34786e-09
0.000343316
1.30656e-09
0.000312105
1.2587e-09
0.000283732
1.19923e-09
0.000257938
1.1348e-09
0.000234489
1.06329e-09
0.000213172
9.89039e-10
0.000193793
9.11638e-10
0.000176175
8.3382e-10
0.000160159
7.55883e-10
0.000145599
6.79455e-10
0.000132363
6.04973e-10
0.00012033
5.33328e-10
0.000109391
4.6484e-10
9.94464e-05
3.99925e-10
9.04058e-05
3.38718e-10
8.21871e-05
2.81342e-10
7.47156e-05
2.27783e-10
6.79232e-05
1.77985e-10
6.17484e-05
1.3183e-10
5.61349e-05
8.91774e-11
5.10317e-05
4.98494e-11
4.63925e-05
1.36663e-11
4.2175e-05
3.83409e-05
-7.03558e-13
3.83409e-05
-8.32966e-12
4.2175e-05
-1.65817e-11
4.63925e-05
-2.54707e-11
5.10317e-05
-3.50065e-11
5.61349e-05
-4.51722e-11
6.17484e-05
-5.59518e-11
6.79232e-05
-6.73052e-11
7.47155e-05
-7.91965e-11
8.21871e-05
-9.15626e-11
9.04058e-05
-1.04346e-10
9.94464e-05
-1.1745e-10
0.000109391
-1.3078e-10
0.00012033
-1.44172e-10
0.000132363
-1.57474e-10
0.000145599
-1.70396e-10
0.000160159
-1.82719e-10
0.000176175
-1.93952e-10
0.000193793
-2.03851e-10
0.000213172
-2.1164e-10
0.000234489
-2.17185e-10
0.000257938
-2.19293e-10
0.000283732
-2.18226e-10
0.000312105
-2.12185e-10
0.000343316
-2.02327e-10
0.000377647
-1.86066e-10
0.000415412
-1.6622e-10
0.000456953
-1.3961e-10
0.000502649
-1.11476e-10
0.000552913
-7.82067e-11
0.000608205
-4.27276e-11
0.000669025
-1.05346e-12
0.000735928
5.28529e-11
0.000809521
1.26973e-10
0.000890473
2.24727e-10
0.00097952
3.47096e-10
0.00107747
4.89981e-10
0.00118522
6.32673e-10
0.00118522
7.57571e-10
0.00107747
8.67827e-10
0.00097952
9.68782e-10
0.000890473
1.06207e-09
0.000809521
1.15411e-09
0.000735928
1.23393e-09
0.000669025
1.3045e-09
0.000608205
1.35279e-09
0.000552914
1.38997e-09
0.000502649
1.40325e-09
0.000456953
1.40878e-09
0.000415412
1.39352e-09
0.000377647
1.37135e-09
0.000343316
1.33216e-09
0.000312105
1.28642e-09
0.000283732
1.22814e-09
0.000257938
1.16457e-09
0.000234489
1.09307e-09
0.000213172
1.01843e-09
0.000193793
9.40001e-10
0.000176175
8.60828e-10
0.000160159
7.81148e-10
0.000145599
7.02792e-10
0.000132363
6.26204e-10
0.00012033
5.52404e-10
0.000109391
4.81732e-10
9.94464e-05
4.14682e-10
9.04058e-05
3.51408e-10
8.21871e-05
2.92064e-10
7.47155e-05
2.36648e-10
6.79232e-05
1.85122e-10
6.17484e-05
1.37375e-10
5.61349e-05
9.32572e-11
5.10317e-05
5.25932e-11
4.63925e-05
1.51878e-11
4.2175e-05
3.83409e-05
-9.33739e-13
3.83409e-05
-9.01705e-12
4.2175e-05
-1.77634e-11
4.63925e-05
-2.71805e-11
5.10317e-05
-3.72693e-11
5.61349e-05
-4.80155e-11
6.17484e-05
-5.93939e-11
6.79232e-05
-7.13603e-11
7.47155e-05
-8.38685e-11
8.21871e-05
-9.68445e-11
9.04058e-05
-1.10219e-10
9.94463e-05
-1.23887e-10
0.000109391
-1.37742e-10
0.00012033
-1.51605e-10
0.000132363
-1.65317e-10
0.000145599
-1.78571e-10
0.000160159
-1.91137e-10
0.000176175
-2.02515e-10
0.000193793
-2.12445e-10
0.000213172
-2.20159e-10
0.000234489
-2.2549e-10
0.000257938
-2.27295e-10
0.000283732
-2.25759e-10
0.000312105
-2.19211e-10
0.000343316
-2.08625e-10
0.000377647
-1.91707e-10
0.000415412
-1.70894e-10
0.000456953
-1.43644e-10
0.000502649
-1.14541e-10
0.000552913
-8.13933e-11
0.000608205
-4.57249e-11
0.000669025
-3.56411e-12
0.000735928
5.10516e-11
0.000809521
1.25949e-10
0.000890473
2.24512e-10
0.00097952
3.47662e-10
0.00107747
4.91185e-10
0.00118522
6.34342e-10
0.00118522
7.59578e-10
0.00107747
8.70277e-10
0.00097952
9.72223e-10
0.000890473
1.0671e-09
0.000809521
1.15965e-09
0.000735928
1.24099e-09
0.000669025
1.31248e-09
0.000608205
1.36275e-09
0.000552913
1.40149e-09
0.000502649
1.41696e-09
0.000456953
1.42437e-09
0.000415412
1.41115e-09
0.000377647
1.39069e-09
0.000343316
1.35303e-09
0.000312105
1.30843e-09
0.000283732
1.25089e-09
0.000257938
1.18762e-09
0.000234489
1.11598e-09
0.000213172
1.04076e-09
0.000193793
9.61379e-10
0.000176175
8.80911e-10
0.000160159
7.99689e-10
0.000145599
7.19605e-10
0.000132363
6.41195e-10
0.00012033
5.65536e-10
0.000109391
4.93036e-10
9.94463e-05
4.24228e-10
9.04058e-05
3.593e-10
8.21871e-05
2.98429e-10
7.47155e-05
2.41624e-10
6.79232e-05
1.88842e-10
6.17484e-05
1.39969e-10
5.61349e-05
9.48489e-11
5.10317e-05
5.32968e-11
4.63925e-05
1.51091e-11
4.21749e-05
3.83409e-05
-1.15671e-12
3.83409e-05
-9.47447e-12
4.21749e-05
-1.84782e-11
4.63924e-05
-2.81791e-11
5.10317e-05
-3.85745e-11
5.61349e-05
-4.96544e-11
6.17483e-05
-6.13871e-11
6.79232e-05
-7.37355e-11
7.47155e-05
-8.66445e-11
8.2187e-05
-1.00049e-10
9.04058e-05
-1.13868e-10
9.94463e-05
-1.27991e-10
0.000109391
-1.42304e-10
0.00012033
-1.56623e-10
0.000132363
-1.70769e-10
0.000145599
-1.84431e-10
0.000160159
-1.97351e-10
0.000176175
-2.09034e-10
0.000193793
-2.19182e-10
0.000213172
-2.27041e-10
0.000234489
-2.32396e-10
0.000257938
-2.34141e-10
0.000283732
-2.324e-10
0.000312105
-2.25575e-10
0.000343316
-2.14547e-10
0.000377647
-1.97154e-10
0.000415412
-1.75675e-10
0.000456953
-1.47788e-10
0.000502648
-1.17883e-10
0.000552913
-8.43583e-11
0.000608205
-4.83622e-11
0.000669025
-5.83843e-12
0.000735928
4.9415e-11
0.00080952
1.25012e-10
0.000890472
2.244e-10
0.00097952
3.48378e-10
0.00107747
4.92679e-10
0.00118522
6.36518e-10
0.00118522
7.62339e-10
0.00107747
8.7363e-10
0.00097952
9.76415e-10
0.000890472
1.07248e-09
0.00080952
1.16585e-09
0.000735928
1.24837e-09
0.000669025
1.32095e-09
0.000608205
1.37263e-09
0.000552913
1.41272e-09
0.000502649
1.42965e-09
0.000456953
1.43838e-09
0.000415412
1.4263e-09
0.000377647
1.40677e-09
0.000343316
1.36971e-09
0.000312105
1.32549e-09
0.000283732
1.268e-09
0.000257938
1.20461e-09
0.000234489
1.13261e-09
0.000213172
1.05695e-09
0.000193793
9.76994e-10
0.000176175
8.95919e-10
0.000160159
8.13999e-10
0.000145599
7.33181e-10
0.000132363
6.53954e-10
0.00012033
5.77424e-10
0.000109391
5.03972e-10
9.94463e-05
4.34144e-10
9.04058e-05
3.68137e-10
8.2187e-05
3.06141e-10
7.47155e-05
2.48178e-10
6.79232e-05
1.94227e-10
6.17484e-05
1.44194e-10
5.61349e-05
9.79372e-11
5.10317e-05
5.52968e-11
4.63925e-05
1.60701e-11
4.21749e-05
3.83409e-05
-1.14745e-12
3.83409e-05
-9.71766e-12
4.21749e-05
-1.89929e-11
4.63924e-05
-2.89845e-11
5.10317e-05
-3.96883e-11
5.61348e-05
-5.10977e-11
6.17483e-05
-6.31781e-11
6.79232e-05
-7.58858e-11
7.47155e-05
-8.91683e-11
8.2187e-05
-1.02949e-10
9.04057e-05
-1.17149e-10
9.94463e-05
-1.31654e-10
0.000109391
-1.46343e-10
0.00012033
-1.61029e-10
0.000132363
-1.75524e-10
0.000145599
-1.89511e-10
0.000160159
-2.02722e-10
0.000176175
-2.14653e-10
0.000193793
-2.24993e-10
0.000213172
-2.32981e-10
0.000234489
-2.38388e-10
0.000257938
-2.4011e-10
0.000283732
-2.38247e-10
0.000312105
-2.31226e-10
0.000343316
-2.19887e-10
0.000377647
-2.02126e-10
0.000415412
-1.80152e-10
0.000456953
-1.51755e-10
0.000502648
-1.21191e-10
0.000552913
-8.71605e-11
0.000608205
-5.07493e-11
0.000669025
-7.76321e-12
0.000735928
4.80122e-11
0.00080952
1.24327e-10
0.000890472
2.24489e-10
0.00097952
3.49331e-10
0.00107747
4.94498e-10
0.00118522
6.39145e-10
0.00118522
7.65689e-10
0.00107747
8.77669e-10
0.00097952
9.81195e-10
0.000890472
1.07828e-09
0.00080952
1.17243e-09
0.000735928
1.25603e-09
0.000669025
1.32958e-09
0.000608205
1.3824e-09
0.000552913
1.42358e-09
0.000502648
1.44152e-09
0.000456953
1.45116e-09
0.000415412
1.43977e-09
0.000377647
1.42074e-09
0.000343316
1.38386e-09
0.000312105
1.33954e-09
0.000283732
1.28162e-09
0.000257938
1.21749e-09
0.000234489
1.14445e-09
0.000213172
1.0675e-09
0.000193793
9.86064e-10
0.000176175
9.03389e-10
0.000160159
8.19861e-10
0.000145599
7.37486e-10
0.000132363
6.56846e-10
0.00012033
5.79089e-10
0.000109391
5.04644e-10
9.94463e-05
4.34066e-10
9.04058e-05
3.67545e-10
8.2187e-05
3.0526e-10
7.47155e-05
2.47198e-10
6.79232e-05
1.93313e-10
6.17483e-05
1.4346e-10
5.61349e-05
9.74751e-11
5.10317e-05
5.51507e-11
4.63924e-05
1.62703e-11
4.21749e-05
3.83409e-05
-1.3384e-12
3.83409e-05
-1.00183e-11
4.21749e-05
-1.94178e-11
4.63924e-05
-2.95447e-11
5.10317e-05
-4.04019e-11
5.61348e-05
-5.19784e-11
6.17483e-05
-6.42452e-11
6.79232e-05
-7.71606e-11
7.47155e-05
-9.06661e-11
8.2187e-05
-1.04696e-10
9.04057e-05
-1.19164e-10
9.94463e-05
-1.33955e-10
0.000109391
-1.48947e-10
0.00012033
-1.63946e-10
0.000132363
-1.78759e-10
0.000145599
-1.93068e-10
0.000160159
-2.06583e-10
0.000176175
-2.18808e-10
0.000193793
-2.29392e-10
0.000213172
-2.376e-10
0.000234489
-2.43142e-10
0.000257938
-2.44959e-10
0.000283732
-2.43079e-10
0.000312105
-2.35991e-10
0.000343316
-2.24458e-10
0.000377647
-2.06449e-10
0.000415412
-1.84105e-10
0.000456953
-1.55273e-10
0.000502648
-1.24212e-10
0.000552913
-8.96939e-11
0.000608204
-5.28212e-11
0.000669025
-9.42439e-12
0.000735927
4.69428e-11
0.00080952
1.23904e-10
0.000890472
2.24873e-10
0.000979519
3.50583e-10
0.00107747
4.96647e-10
0.00118522
6.4216e-10
0.00118522
7.695e-10
0.00107747
8.82238e-10
0.000979519
9.86546e-10
0.000890472
1.08447e-09
0.00080952
1.1795e-09
0.000735927
1.2639e-09
0.000669025
1.33834e-09
0.000608205
1.39199e-09
0.000552913
1.43399e-09
0.000502648
1.45262e-09
0.000456953
1.46287e-09
0.000415412
1.45186e-09
0.000377647
1.43313e-09
0.000343316
1.39634e-09
0.000312105
1.3521e-09
0.000283732
1.29412e-09
0.000257938
1.23003e-09
0.000234489
1.15698e-09
0.000213172
1.08014e-09
0.000193793
9.98791e-10
0.000176175
9.1625e-10
0.000160159
8.32762e-10
0.000145599
7.50349e-10
0.000132363
6.6949e-10
0.00012033
5.91331e-10
0.000109391
5.16255e-10
9.94463e-05
4.44835e-10
9.04058e-05
3.77271e-10
8.2187e-05
3.13771e-10
7.47155e-05
2.54368e-10
6.79232e-05
1.99048e-10
6.17483e-05
1.4772e-10
5.61349e-05
1.00259e-10
5.10317e-05
5.64873e-11
4.63924e-05
1.62232e-11
4.21749e-05
3.83409e-05
-1.2782e-12
3.83408e-05
-1.01679e-11
4.21749e-05
-1.97893e-11
4.63924e-05
-3.01521e-11
5.10317e-05
-4.12584e-11
5.61348e-05
-5.3096e-11
6.17483e-05
-6.56338e-11
6.79231e-05
-7.88197e-11
7.47155e-05
-9.26028e-11
8.2187e-05
-1.06907e-10
9.04057e-05
-1.21647e-10
9.94463e-05
-1.36704e-10
0.000109391
-1.51948e-10
0.00012033
-1.6719e-10
0.000132363
-1.82228e-10
0.000145599
-1.9674e-10
0.000160159
-2.10437e-10
0.000176175
-2.22814e-10
0.000193793
-2.33517e-10
0.000213172
-2.41803e-10
0.000234489
-2.47384e-10
0.000257938
-2.49195e-10
0.000283732
-2.47249e-10
0.000312105
-2.40052e-10
0.000343316
-2.28335e-10
0.000377647
-2.10097e-10
0.000415412
-1.87443e-10
0.000456953
-1.58272e-10
0.000502648
-1.26779e-10
0.000552913
-9.18201e-11
0.000608204
-5.45183e-11
0.000669025
-1.06167e-11
0.000735927
4.62297e-11
0.00080952
1.23869e-10
0.000890472
2.25582e-10
0.000979519
3.52164e-10
0.00107747
4.99149e-10
0.00118522
6.45567e-10
0.00118522
7.73742e-10
0.00107747
8.87268e-10
0.000979519
9.92311e-10
0.000890472
1.09104e-09
0.00080952
1.18676e-09
0.000735927
1.27197e-09
0.000669025
1.34712e-09
0.000608204
1.4015e-09
0.000552913
1.44414e-09
0.000502648
1.46328e-09
0.000456953
1.47395e-09
0.000415412
1.46314e-09
0.000377647
1.44448e-09
0.000343316
1.40748e-09
0.000312105
1.36282e-09
0.000283732
1.30413e-09
0.000257938
1.23903e-09
0.000234489
1.16472e-09
0.000213172
1.08635e-09
0.000193793
1.00335e-09
0.000176175
9.19045e-10
0.000160159
8.33858e-10
0.000145599
7.49863e-10
0.000132363
6.67662e-10
0.00012033
5.8844e-10
0.000109391
5.12639e-10
9.94463e-05
4.40831e-10
9.04057e-05
3.73204e-10
8.2187e-05
3.09932e-10
7.47155e-05
2.50995e-10
6.79231e-05
1.96334e-10
6.17483e-05
1.45797e-10
5.61348e-05
9.92048e-11
5.10317e-05
5.63363e-11
4.63924e-05
1.6971e-11
4.21749e-05
3.83409e-05
-1.44207e-12
3.83408e-05
-1.0375e-11
4.21749e-05
-2.00415e-11
4.63924e-05
-3.04607e-11
5.10317e-05
-4.16342e-11
5.61348e-05
-5.35469e-11
6.17483e-05
-6.61728e-11
6.79231e-05
-7.94691e-11
7.47155e-05
-9.33784e-11
8.2187e-05
-1.07829e-10
9.04057e-05
-1.22732e-10
9.94463e-05
-1.37976e-10
0.000109391
-1.53424e-10
0.00012033
-1.68888e-10
0.000132363
-1.84152e-10
0.000145599
-1.98905e-10
0.000160159
-2.12829e-10
0.000176175
-2.25435e-10
0.000193793
-2.36332e-10
0.000213172
-2.44802e-10
0.000234489
-2.50499e-10
0.000257938
-2.52404e-10
0.000283732
-2.50465e-10
0.000312105
-2.4324e-10
0.000343315
-2.31401e-10
0.000377647
-2.12998e-10
0.000415412
-1.9009e-10
0.000456953
-1.60605e-10
0.000502648
-1.28772e-10
0.000552913
-9.34437e-11
0.000608204
-5.5725e-11
0.000669025
-1.14479e-11
0.000735927
4.59617e-11
0.00080952
1.24195e-10
0.000890472
2.26679e-10
0.000979519
3.54112e-10
0.00107747
5.02009e-10
0.00118522
6.49334e-10
0.00118522
7.78355e-10
0.00107747
8.92676e-10
0.000979519
9.9848e-10
0.000890472
1.09791e-09
0.00080952
1.19438e-09
0.000735927
1.28023e-09
0.000669025
1.35607e-09
0.000608204
1.41102e-09
0.000552913
1.45422e-09
0.000502648
1.47376e-09
0.000456953
1.48477e-09
0.000415412
1.47413e-09
0.000377647
1.45562e-09
0.000343316
1.41863e-09
0.000312105
1.37407e-09
0.000283732
1.31543e-09
0.000257938
1.25059e-09
0.000234489
1.17658e-09
0.000213172
1.09871e-09
0.000193793
1.01622e-09
0.000176175
9.32502e-10
0.000160159
8.47781e-10
0.000145599
7.64127e-10
0.000132363
6.82004e-10
0.00012033
6.02583e-10
0.000109391
5.2625e-10
9.94463e-05
4.5359e-10
9.04057e-05
3.84808e-10
8.2187e-05
3.20125e-10
7.47155e-05
2.5958e-10
6.79231e-05
2.03171e-10
6.17483e-05
1.50811e-10
5.61348e-05
1.02371e-10
5.10317e-05
5.76937e-11
4.63924e-05
1.65873e-11
4.21749e-05
3.83409e-05
-1.37603e-12
3.83408e-05
-1.04725e-11
4.21749e-05
-2.0321e-11
4.63924e-05
-3.09289e-11
5.10317e-05
-4.22966e-11
5.61348e-05
-5.44092e-11
6.17483e-05
-6.72368e-11
6.79231e-05
-8.07351e-11
7.47154e-05
-9.48437e-11
8.2187e-05
-1.09483e-10
9.04057e-05
-1.2457e-10
9.94463e-05
-1.39982e-10
0.000109391
-1.55588e-10
0.00012033
-1.71191e-10
0.000132363
-1.86581e-10
0.000145599
-2.01435e-10
0.000160159
-2.15447e-10
0.000176175
-2.28109e-10
0.000193793
-2.3905e-10
0.000213172
-2.47531e-10
0.000234489
-2.5322e-10
0.000257938
-2.55081e-10
0.000283732
-2.53071e-10
0.000312105
-2.4574e-10
0.000343315
-2.33754e-10
0.000377647
-2.15167e-10
0.000415412
-1.92029e-10
0.000456953
-1.62286e-10
0.000502648
-1.30133e-10
0.000552913
-9.44574e-11
0.000608204
-5.6406e-11
0.000669025
-1.16778e-11
0.000735927
4.61334e-11
0.00080952
1.24987e-10
0.000890472
2.28156e-10
0.000979519
3.56426e-10
0.00107747
5.05231e-10
0.00118522
6.53467e-10
0.00118522
7.83329e-10
0.00107747
8.98429e-10
0.000979519
1.00493e-09
0.000890472
1.10507e-09
0.00080952
1.20217e-09
0.000735927
1.28871e-09
0.000669025
1.36518e-09
0.000608204
1.42074e-09
0.000552913
1.46447e-09
0.000502648
1.48441e-09
0.000456953
1.49576e-09
0.000415412
1.48525e-09
0.000377647
1.46674e-09
0.000343315
1.4295e-09
0.000312105
1.38444e-09
0.000283732
1.32499e-09
0.000257938
1.25898e-09
0.000234489
1.1835e-09
0.000213172
1.10385e-09
0.000193793
1.01941e-09
0.000176175
9.33623e-10
0.000160159
8.46918e-10
0.000145599
7.61429e-10
0.000132363
6.77784e-10
0.00012033
5.97202e-10
0.000109391
5.20138e-10
9.94463e-05
4.47171e-10
9.04057e-05
3.78499e-10
8.2187e-05
3.14294e-10
7.47155e-05
2.54523e-10
6.79231e-05
1.99124e-10
6.17483e-05
1.47928e-10
5.61348e-05
1.00755e-10
5.10317e-05
5.73666e-11
4.63924e-05
1.75319e-11
4.21749e-05
3.83409e-05
-1.53274e-12
3.83408e-05
-1.06165e-11
4.21749e-05
-2.04495e-11
4.63924e-05
-3.10468e-11
5.10316e-05
-4.24136e-11
5.61348e-05
-5.45334e-11
6.17483e-05
-6.73785e-11
6.79231e-05
-8.09067e-11
7.47154e-05
-9.5061e-11
8.2187e-05
-1.09766e-10
9.04057e-05
-1.24931e-10
9.94462e-05
-1.40446e-10
0.000109391
-1.56165e-10
0.00012033
-1.71901e-10
0.000132363
-1.87434e-10
0.000145599
-2.02445e-10
0.000160159
-2.16605e-10
0.000176175
-2.29425e-10
0.000193793
-2.40494e-10
0.000213172
-2.49098e-10
0.000234489
-2.54861e-10
0.000257938
-2.56779e-10
0.000283732
-2.5476e-10
0.000312105
-2.47391e-10
0.000343315
-2.35298e-10
0.000377647
-2.16568e-10
0.000415412
-1.93229e-10
0.000456953
-1.6323e-10
0.000502648
-1.30821e-10
0.000552913
-9.48726e-11
0.000608204
-5.6491e-11
0.000669025
-1.14854e-11
0.000735927
4.68188e-11
0.00080952
1.26185e-10
0.000890472
2.30063e-10
0.000979519
3.59131e-10
0.00107747
5.08814e-10
0.00118522
6.57936e-10
0.00118522
7.88621e-10
0.00107747
9.04482e-10
0.000979519
1.01171e-09
0.000890472
1.1125e-09
0.00080952
1.2103e-09
0.000735927
1.29745e-09
0.000669025
1.37459e-09
0.000608204
1.4307e-09
0.000552913
1.47497e-09
0.000502648
1.49529e-09
0.000456953
1.507e-09
0.000415412
1.49665e-09
0.000377647
1.47833e-09
0.000343315
1.44115e-09
0.000312105
1.39628e-09
0.000283732
1.33703e-09
0.000257938
1.27147e-09
0.000234489
1.19653e-09
0.000213172
1.11767e-09
0.000193793
1.03406e-09
0.000176175
9.49191e-10
0.000160159
8.63244e-10
0.000145599
7.78344e-10
0.000132363
6.94942e-10
0.00012033
6.14239e-10
0.000109391
5.36616e-10
9.94462e-05
4.62676e-10
9.04057e-05
3.9263e-10
8.2187e-05
3.26716e-10
7.47155e-05
2.64982e-10
6.79231e-05
2.07425e-10
6.17483e-05
1.53977e-10
5.61348e-05
1.04513e-10
5.10317e-05
5.88771e-11
4.63924e-05
1.68846e-11
4.21749e-05
3.83408e-05
-1.44619e-12
3.83408e-05
-1.06466e-11
4.21749e-05
-2.06047e-11
4.63924e-05
-3.13377e-11
5.10316e-05
-4.28385e-11
5.61348e-05
-5.50937e-11
6.17483e-05
-6.80783e-11
6.79231e-05
-8.17365e-11
7.47154e-05
-9.60142e-11
8.2187e-05
-1.1083e-10
9.04057e-05
-1.26099e-10
9.94462e-05
-1.41695e-10
0.000109391
-1.57486e-10
0.00012033
-1.73274e-10
0.000132363
-1.88844e-10
0.000145599
-2.03869e-10
0.000160159
-2.18037e-10
0.000176175
-2.30837e-10
0.000193793
-2.41881e-10
0.000213172
-2.50432e-10
0.000234489
-2.56141e-10
0.000257938
-2.57974e-10
0.000283732
-2.55864e-10
0.000312105
-2.48371e-10
0.000343315
-2.36142e-10
0.000377647
-2.17238e-10
0.000415412
-1.93706e-10
0.000456953
-1.63493e-10
0.000502648
-1.30834e-10
0.000552913
-9.46079e-11
0.000608204
-5.5996e-11
0.000669024
-1.06238e-11
0.000735927
4.79761e-11
0.00080952
1.27881e-10
0.000890472
2.32364e-10
0.000979519
3.62205e-10
0.00107747
5.12746e-10
0.00118522
6.62736e-10
0.00118522
7.94219e-10
0.00107747
9.10809e-10
0.000979519
1.0187e-09
0.000890472
1.12015e-09
0.00080952
1.2186e-09
0.000735927
1.30646e-09
0.000669024
1.38426e-09
0.000608204
1.44099e-09
0.000552913
1.48586e-09
0.000502648
1.50661e-09
0.000456953
1.51869e-09
0.000415412
1.50852e-09
0.000377647
1.49022e-09
0.000343315
1.45277e-09
0.000312105
1.40732e-09
0.000283732
1.34713e-09
0.000257938
1.28019e-09
0.000234489
1.20352e-09
0.000213172
1.12253e-09
0.000193793
1.03659e-09
0.000176175
9.49253e-10
0.000160159
8.60949e-10
0.000145599
7.73882e-10
0.000132363
6.88704e-10
0.00012033
6.06671e-10
0.000109391
5.2825e-10
9.94462e-05
4.54045e-10
9.04057e-05
3.8424e-10
8.2187e-05
3.19019e-10
7.47155e-05
2.58342e-10
6.79231e-05
2.02129e-10
6.17483e-05
1.5021e-10
5.61348e-05
1.02384e-10
5.10317e-05
5.84127e-11
4.63924e-05
1.80488e-11
4.21749e-05
3.83408e-05
-1.5981e-12
3.83408e-05
-1.0732e-11
4.21749e-05
-2.06261e-11
4.63924e-05
-3.12892e-11
5.10316e-05
-4.27258e-11
5.61348e-05
-5.492e-11
6.17483e-05
-6.78468e-11
6.79231e-05
-8.14621e-11
7.47154e-05
-9.57057e-11
8.21869e-05
-1.10505e-10
9.04056e-05
-1.2577e-10
9.94462e-05
-1.41385e-10
0.000109391
-1.57206e-10
0.00012033
-1.73047e-10
0.000132363
-1.88677e-10
0.000145599
-2.03781e-10
0.000160159
-2.18023e-10
0.000176175
-2.30909e-10
0.000193793
-2.4202e-10
0.000213172
-2.5064e-10
0.000234489
-2.56377e-10
0.000257938
-2.5823e-10
0.000283732
-2.56089e-10
0.000312105
-2.48542e-10
0.000343315
-2.36209e-10
0.000377647
-2.17166e-10
0.000415411
-1.93461e-10
0.000456953
-1.63027e-10
0.000502648
-1.3017e-10
0.000552913
-9.3751e-11
0.000608204
-5.48884e-11
0.000669024
-9.34706e-12
0.000735927
4.96614e-11
0.000809519
1.29986e-10
0.000890471
2.351e-10
0.000979519
3.65666e-10
0.00107747
5.17019e-10
0.00118522
6.67837e-10
0.00118522
8.00088e-10
0.00107747
9.17383e-10
0.000979519
1.02595e-09
0.000890471
1.12804e-09
0.00080952
1.22719e-09
0.000735927
1.3157e-09
0.000669024
1.39422e-09
0.000608204
1.45155e-09
0.000552913
1.49701e-09
0.000502648
1.51819e-09
0.000456953
1.53068e-09
0.000415412
1.52072e-09
0.000377647
1.50268e-09
0.000343315
1.46536e-09
0.000312105
1.42022e-09
0.000283732
1.36035e-09
0.000257938
1.29407e-09
0.000234489
1.21816e-09
0.000213172
1.13825e-09
0.000193793
1.05343e-09
0.000176175
9.67312e-10
0.000160159
8.8003e-10
0.000145599
7.9377e-10
0.000132363
7.08965e-10
0.00012033
6.2685e-10
0.000109391
5.4781e-10
9.94462e-05
4.72469e-10
9.04057e-05
4.01046e-10
8.21869e-05
3.33785e-10
7.47154e-05
2.70749e-10
6.79231e-05
2.11949e-10
6.17483e-05
1.57317e-10
5.61348e-05
1.06739e-10
5.10316e-05
6.00612e-11
4.63924e-05
1.7105e-11
4.21749e-05
3.83408e-05
-1.47455e-12
3.83408e-05
-1.0697e-11
4.21749e-05
-2.06795e-11
4.63924e-05
-3.14336e-11
5.10316e-05
-4.29605e-11
5.61348e-05
-5.52419e-11
6.17483e-05
-6.82476e-11
6.79231e-05
-8.19365e-11
7.47154e-05
-9.62437e-11
8.21869e-05
-1.11087e-10
9.04056e-05
-1.26383e-10
9.94462e-05
-1.42007e-10
0.000109391
-1.57826e-10
0.00012033
-1.73637e-10
0.000132363
-1.89226e-10
0.000145599
-2.04262e-10
0.000160159
-2.18431e-10
0.000176175
-2.31217e-10
0.000193792
-2.42233e-10
0.000213172
-2.5073e-10
0.000234489
-2.56359e-10
0.000257938
-2.58074e-10
0.000283732
-2.55811e-10
0.000312105
-2.48113e-10
0.000343315
-2.35636e-10
0.000377647
-2.16419e-10
0.000415411
-1.92542e-10
0.000456953
-1.61919e-10
0.000502648
-1.28862e-10
0.000552913
-9.22199e-11
0.000608204
-5.32166e-11
0.000669024
-7.38873e-12
0.000735927
5.1807e-11
0.000809519
1.32582e-10
0.000890471
2.38211e-10
0.000979518
3.69472e-10
0.00107747
5.21612e-10
0.00118522
6.73228e-10
0.00118522
8.06209e-10
0.00107747
9.24169e-10
0.000979518
1.03335e-09
0.000890471
1.13609e-09
0.000809519
1.2359e-09
0.000735927
1.32514e-09
0.000669024
1.40436e-09
0.000608204
1.46237e-09
0.000552913
1.50846e-09
0.000502648
1.53012e-09
0.000456953
1.54304e-09
0.000415411
1.53329e-09
0.000377647
1.51527e-09
0.000343315
1.47767e-09
0.000312105
1.43188e-09
0.000283732
1.37096e-09
0.000257938
1.30308e-09
0.000234489
1.22518e-09
0.000213172
1.1428e-09
0.000193793
1.0553e-09
0.000176175
9.66317e-10
0.000160159
8.76317e-10
0.000145599
7.87565e-10
0.000132363
7.0074e-10
0.00012033
6.1714e-10
0.000109391
5.37248e-10
9.94462e-05
4.61682e-10
9.04057e-05
3.90635e-10
8.21869e-05
3.24285e-10
7.47154e-05
2.62589e-10
6.79231e-05
2.05463e-10
6.17483e-05
1.52717e-10
5.61348e-05
1.04155e-10
5.10316e-05
5.95147e-11
4.63924e-05
1.85476e-11
4.21749e-05
3.83408e-05
-1.62846e-12
3.83408e-05
-1.0737e-11
4.21749e-05
-2.06044e-11
4.63924e-05
-3.12411e-11
5.10316e-05
-4.26448e-11
5.61348e-05
-5.48047e-11
6.17482e-05
-6.76953e-11
6.79231e-05
-8.12738e-11
7.47154e-05
-9.54798e-11
8.21869e-05
-1.10239e-10
9.04056e-05
-1.25465e-10
9.94462e-05
-1.41038e-10
0.000109391
-1.56818e-10
0.00012033
-1.72611e-10
0.000132363
-1.88189e-10
0.000145599
-2.03235e-10
0.000160159
-2.17412e-10
0.000176175
-2.30222e-10
0.000193792
-2.41243e-10
0.000213172
-2.49755e-10
0.000234489
-2.55364e-10
0.000257938
-2.57059e-10
0.000283732
-2.54731e-10
0.000312105
-2.46954e-10
0.000343315
-2.3436e-10
0.000377647
-2.15001e-10
0.000415411
-1.90962e-10
0.000456952
-1.60143e-10
0.000502648
-1.26929e-10
0.000552912
-9.01582e-11
0.000608204
-5.09677e-11
0.000669024
-5.06722e-12
0.000735927
5.44592e-11
0.000809519
1.35559e-10
0.000890471
2.41738e-10
0.000979518
3.73642e-10
0.00107747
5.26514e-10
0.00118522
6.78881e-10
0.00118522
8.12554e-10
0.00107747
9.31152e-10
0.000979518
1.04096e-09
0.000890471
1.1443e-09
0.000809519
1.24482e-09
0.000735927
1.33471e-09
0.000669024
1.41467e-09
0.000608204
1.47328e-09
0.000552913
1.52e-09
0.000502648
1.5421e-09
0.000456953
1.55546e-09
0.000415411
1.54594e-09
0.000377647
1.52824e-09
0.000343315
1.49082e-09
0.000312105
1.44545e-09
0.000283732
1.38498e-09
0.000257938
1.31797e-09
0.000234489
1.24106e-09
0.000213172
1.16007e-09
0.000193793
1.074e-09
0.000176175
9.86569e-10
0.000160159
8.9788e-10
0.000145599
8.1018e-10
0.000132363
7.23891e-10
0.00012033
6.40281e-10
0.000109391
5.59735e-10
9.94462e-05
4.82903e-10
9.04057e-05
4.10009e-10
8.21869e-05
3.41315e-10
7.47154e-05
2.76889e-10
6.79231e-05
2.16761e-10
6.17483e-05
1.60867e-10
5.61348e-05
1.09102e-10
5.10316e-05
6.13111e-11
4.63924e-05
1.73158e-11
4.21749e-05
3.83408e-05
-1.47224e-12
3.83408e-05
-1.06464e-11
4.21749e-05
-2.05801e-11
4.63924e-05
-3.12802e-11
5.10316e-05
-4.27457e-11
5.61348e-05
-5.49659e-11
6.17482e-05
-6.79049e-11
6.79231e-05
-8.15169e-11
7.47154e-05
-9.57423e-11
8.21869e-05
-1.105e-10
9.04056e-05
-1.25704e-10
9.94462e-05
-1.41231e-10
0.000109391
-1.56942e-10
0.00012033
-1.7264e-10
0.000132363
-1.88109e-10
0.000145599
-2.03014e-10
0.000160159
-2.17044e-10
0.000176175
-2.29678e-10
0.000193792
-2.40531e-10
0.000213172
-2.48847e-10
0.000234489
-2.54284e-10
0.000257938
-2.5578e-10
0.000283731
-2.53284e-10
0.000312105
-2.45315e-10
0.000343315
-2.32553e-10
0.000377647
-2.13004e-10
0.000415411
-1.88796e-10
0.000456952
-1.578e-10
0.000502648
-1.24419e-10
0.000552912
-8.74633e-11
0.000608204
-4.82062e-11
0.000669024
-2.08475e-12
0.000735926
5.75305e-11
0.000809519
1.38998e-10
0.000890471
2.45604e-10
0.000979518
3.7812e-10
0.00107747
5.31697e-10
0.00118522
6.84778e-10
0.00118522
8.19099e-10
0.00107747
9.38284e-10
0.000979518
1.04865e-09
0.000890471
1.1526e-09
0.000809519
1.25375e-09
0.000735927
1.34435e-09
0.000669024
1.425e-09
0.000608204
1.48427e-09
0.000552913
1.53161e-09
0.000502648
1.55418e-09
0.000456952
1.56796e-09
0.000415411
1.55864e-09
0.000377647
1.54094e-09
0.000343315
1.50321e-09
0.000312105
1.45709e-09
0.000283732
1.39544e-09
0.000257938
1.32664e-09
0.000234489
1.24748e-09
0.000213172
1.16369e-09
0.000193792
1.0746e-09
0.000176175
9.83934e-10
0.000160159
8.92187e-10
0.000145599
8.01697e-10
0.000132363
7.13169e-10
0.00012033
6.27945e-10
0.000109391
5.46526e-10
9.94462e-05
4.69548e-10
9.04056e-05
3.97206e-10
8.21869e-05
3.29682e-10
7.47154e-05
2.66927e-10
6.79231e-05
2.08848e-10
6.17483e-05
1.55247e-10
5.61348e-05
1.0591e-10
5.10316e-05
6.05725e-11
4.63924e-05
1.89744e-11
4.21749e-05
3.83408e-05
-1.6271e-12
3.83408e-05
-1.06591e-11
4.21749e-05
-2.0435e-11
4.63924e-05
-3.09689e-11
5.10316e-05
-4.22662e-11
5.61348e-05
-5.43139e-11
6.17482e-05
-6.70841e-11
6.79231e-05
-8.05358e-11
7.47154e-05
-9.46073e-11
8.21869e-05
-1.09229e-10
9.04056e-05
-1.24306e-10
9.94461e-05
-1.39724e-10
0.000109391
-1.55342e-10
0.00012033
-1.70966e-10
0.000132363
-1.8637e-10
0.000145599
-2.01231e-10
0.000160159
-2.15214e-10
0.000176175
-2.27823e-10
0.000193792
-2.38629e-10
0.000213172
-2.46915e-10
0.000234489
-2.52284e-10
0.000257938
-2.53718e-10
0.000283731
-2.51118e-10
0.000312105
-2.4304e-10
0.000343315
-2.30137e-10
0.000377647
-2.1043e-10
0.000415411
-1.86056e-10
0.000456952
-1.5487e-10
0.000502648