/*--------------------------------*- C++ -*----------------------------------*\
| =========                 |                                                 |
| \\      /  F ield         | OpenFOAM: The Open Source CFD Toolbox           |
|  \\    /   O peration     | Version:  5.x                                   |
|   \\  /    A nd           | Web:      www.OpenFOAM.org                      |
|    \\/     M anipulation  |                                                 |
\*---------------------------------------------------------------------------*/
FoamFile
{
    version     2.0;
    format      ascii;
    class       volScalarField;
    location    "1";
    object      yygradu;
}
// * * * * * * * * * * * * * * * * * * * * * * * * * * * * * * * * * * * * * //

dimensions      [0 2 -2 0 0 0 0];

internalField   nonuniform List<scalar> 
20540
(
225158
0.286318
722320
2.416
608205
1.34085
753781
1.96483
1.01206e+06
2.88154
1.3542e+06
4.23096
1.76115e+06
6.22147
2.19474e+06
9.16315
2.58499e+06
13.515
2.8339e+06
19.9485
2.84422e+06
29.4277
2.56988e+06
43.3052
2.05897e+06
63.4409
1.44644e+06
92.3705
886691
133.574
476006
191.885
226606
274.012
97677.6
389.022
39235.3
548.513
15303.8
765.91
6202.43
1053.91
2901.68
1418.51
1719.32
1847.76
1267.5
2295.68
1050.35
2669.24
898.941
2842.53
761.625
2733.79
628.373
2449.3
498.591
1796.75
396.839
48.8702
474.441
304.353
511.536
23.8396
508.672
37.5336
470.003
191.367
415.04
105.552
513.558
1692.06
636.597
2281.93
763.607
2568.9
894.983
2694.95
1039.05
2562.25
1238.6
2236.83
1630.4
1829.67
2603.89
1427.82
5217
1078.03
12208.2
795.688
30192.3
578.395
73599.7
416.157
169516
297.285
358438
211.15
681189
149.134
1.14706e+06
104.69
1.70049e+06
73.0117
2.22233e+06
50.6016
2.58057e+06
34.893
2.69581e+06
23.9827
2.5714e+06
16.461
2.27428e+06
11.2995
1.89275e+06
7.7647
1.502e+06
5.34356
1.15011e+06
3.68291
860661
2.54168
645112
1.75591
527814
1.21393
644978
2.29414
204198
0.277446
4.02795e-08
3.70952e-08
3.70784e-08
3.71482e-08
3.72361e-08
3.73411e-08
3.74599e-08
3.75904e-08
3.77279e-08
3.78695e-08
3.8012e-08
3.81541e-08
3.82964e-08
3.84408e-08
3.85911e-08
3.87516e-08
3.89275e-08
3.91232e-08
3.93429e-08
3.95891e-08
3.98638e-08
4.01674e-08
4.05002e-08
4.08618e-08
4.12524e-08
4.16724e-08
4.21232e-08
4.2607e-08
4.31268e-08
4.36863e-08
4.42899e-08
4.49423e-08
4.5649e-08
4.64155e-08
4.72479e-08
4.81526e-08
4.91366e-08
5.02073e-08
5.13728e-08
5.26422e-08
5.40254e-08
5.55335e-08
5.71787e-08
5.8975e-08
6.09377e-08
6.30843e-08
6.54344e-08
6.80107e-08
7.08391e-08
7.39506e-08
7.73829e-08
8.11841e-08
8.54189e-08
9.01786e-08
9.56007e-08
1.01902e-07
1.09439e-07
1.18828e-07
1.31178e-07
1.48597e-07
1.75406e-07
2.21432e-07
3.09491e-07
4.24724e-07
5.36845e-07
6.5714e-07
7.90033e-07
9.42207e-07
1.1197e-06
1.32871e-06
1.5761e-06
1.86966e-06
2.21842e-06
2.63287e-06
3.12523e-06
3.70972e-06
4.40298e-06
5.22449e-06
6.19723e-06
7.34876e-06
8.71297e-06
1.03343e-05
1.22781e-05
1.46616e-05
1.77667e-05
2.2628e-05
3.7371e-05
0.000547959
2.40598e-07
2.2158e-07
2.2148e-07
2.21897e-07
2.22422e-07
2.23049e-07
2.23759e-07
2.24538e-07
2.2536e-07
2.26206e-07
2.27057e-07
2.27906e-07
2.28756e-07
2.29618e-07
2.30516e-07
2.31475e-07
2.32525e-07
2.33694e-07
2.35006e-07
2.36477e-07
2.38118e-07
2.39932e-07
2.41919e-07
2.44079e-07
2.46412e-07
2.48921e-07
2.51614e-07
2.54504e-07
2.57609e-07
2.6095e-07
2.64556e-07
2.68453e-07
2.72674e-07
2.77252e-07
2.82224e-07
2.87629e-07
2.93506e-07
2.99901e-07
3.06863e-07
3.14445e-07
3.22707e-07
3.31715e-07
3.41543e-07
3.52272e-07
3.63995e-07
3.76817e-07
3.90855e-07
4.06243e-07
4.23137e-07
4.41722e-07
4.62223e-07
4.84928e-07
5.10222e-07
5.38652e-07
5.71037e-07
6.08673e-07
6.53693e-07
7.09774e-07
7.83537e-07
8.87579e-07
1.04771e-06
1.32262e-06
1.84858e-06
2.5367e-06
3.20626e-06
3.92463e-06
4.71821e-06
5.62689e-06
6.68669e-06
7.93469e-06
9.41171e-06
1.11644e-05
1.32464e-05
1.57205e-05
1.86595e-05
2.21482e-05
2.62857e-05
3.11881e-05
3.69925e-05
4.38629e-05
5.20012e-05
6.16721e-05
7.32645e-05
8.74757e-05
0.000105984
0.000134926
0.000221588
0.00182347
5.15926e-07
4.75167e-07
4.74952e-07
4.75846e-07
4.76973e-07
4.78317e-07
4.79839e-07
4.8151e-07
4.83272e-07
4.85086e-07
4.8691e-07
4.88731e-07
4.90554e-07
4.92403e-07
4.94328e-07
4.96384e-07
4.98637e-07
5.01144e-07
5.03957e-07
5.07112e-07
5.10629e-07
5.14519e-07
5.18781e-07
5.23413e-07
5.28416e-07
5.33796e-07
5.3957e-07
5.45767e-07
5.52425e-07
5.59591e-07
5.67321e-07
5.75679e-07
5.8473e-07
5.94548e-07
6.05209e-07
6.16798e-07
6.294e-07
6.43114e-07
6.58043e-07
6.74301e-07
6.92018e-07
7.11333e-07
7.32406e-07
7.55413e-07
7.80551e-07
8.08045e-07
8.38145e-07
8.71141e-07
9.07367e-07
9.47217e-07
9.91177e-07
1.03986e-06
1.0941e-06
1.15506e-06
1.2245e-06
1.3052e-06
1.40173e-06
1.52198e-06
1.68014e-06
1.90322e-06
2.24655e-06
2.83599e-06
3.96374e-06
5.43873e-06
6.87399e-06
8.41387e-06
1.01148e-05
1.20624e-05
1.43338e-05
1.70083e-05
2.01735e-05
2.3929e-05
2.839e-05
3.36904e-05
3.99862e-05
4.74587e-05
5.63198e-05
6.68178e-05
7.92451e-05
9.39524e-05
0.00011137
0.000132064
0.000156862
0.000187251
0.000226798
0.000288403
0.000465991
0.00162395
1.81312e-06
1.66999e-06
1.66923e-06
1.67237e-06
1.67633e-06
1.68106e-06
1.6864e-06
1.69228e-06
1.69847e-06
1.70484e-06
1.71126e-06
1.71766e-06
1.72406e-06
1.73056e-06
1.73732e-06
1.74455e-06
1.75247e-06
1.76128e-06
1.77117e-06
1.78225e-06
1.79461e-06
1.80828e-06
1.82326e-06
1.83954e-06
1.85712e-06
1.87603e-06
1.89632e-06
1.9181e-06
1.9415e-06
1.96668e-06
1.99385e-06
2.02322e-06
2.05503e-06
2.08953e-06
2.127e-06
2.16772e-06
2.21201e-06
2.26021e-06
2.31267e-06
2.36981e-06
2.43207e-06
2.49995e-06
2.574e-06
2.65486e-06
2.7432e-06
2.83982e-06
2.9456e-06
3.06155e-06
3.18885e-06
3.3289e-06
3.48338e-06
3.65446e-06
3.84506e-06
4.05927e-06
4.3033e-06
4.58687e-06
4.92609e-06
5.34865e-06
5.90442e-06
6.68832e-06
7.89477e-06
9.96598e-06
1.39288e-05
1.91103e-05
2.41524e-05
2.9562e-05
3.5537e-05
4.23779e-05
5.03557e-05
5.97488e-05
7.08643e-05
8.40518e-05
9.97153e-05
0.000118325
0.000140426
0.000166655
0.000197754
0.000234592
0.000278194
0.000329784
0.000390871
0.000463428
0.000550351
0.000656823
0.000795234
0.00100979
0.00159762
0.00439635
5.41865e-06
4.99132e-06
4.98906e-06
4.99845e-06
5.01029e-06
5.0244e-06
5.04039e-06
5.05794e-06
5.07645e-06
5.0955e-06
5.11466e-06
5.13379e-06
5.15293e-06
5.17236e-06
5.19257e-06
5.21417e-06
5.23783e-06
5.26416e-06
5.29371e-06
5.32684e-06
5.36379e-06
5.40464e-06
5.4494e-06
5.49806e-06
5.5506e-06
5.6071e-06
5.66775e-06
5.73284e-06
5.80276e-06
5.87803e-06
5.95922e-06
6.047e-06
6.14206e-06
6.24518e-06
6.35715e-06
6.47886e-06
6.61122e-06
6.75525e-06
6.91204e-06
7.0828e-06
7.26887e-06
7.47173e-06
7.69304e-06
7.93467e-06
8.19868e-06
8.48742e-06
8.80353e-06
9.15006e-06
9.53049e-06
9.949e-06
1.04106e-05
1.09219e-05
1.14915e-05
1.21316e-05
1.28608e-05
1.37082e-05
1.47219e-05
1.59846e-05
1.76453e-05
1.99878e-05
2.35927e-05
2.97815e-05
4.16231e-05
5.70992e-05
7.21599e-05
8.83174e-05
0.000106162
0.000126591
0.000150414
0.00017846
0.000211644
0.00025101
0.000297762
0.000353297
0.000419244
0.000497492
0.000590251
0.000700105
0.000830095
0.000983863
0.00116588
0.00138199
0.00164078
0.00195756
0.00236873
0.00300156
0.00463281
0.0103118
1.4735e-05
1.35747e-05
1.35686e-05
1.35941e-05
1.36263e-05
1.36647e-05
1.37082e-05
1.37559e-05
1.38062e-05
1.3858e-05
1.39101e-05
1.39622e-05
1.40142e-05
1.4067e-05
1.4122e-05
1.41807e-05
1.42451e-05
1.43167e-05
1.4397e-05
1.44871e-05
1.45876e-05
1.46987e-05
1.48204e-05
1.49527e-05
1.50956e-05
1.52493e-05
1.54142e-05
1.55912e-05
1.57813e-05
1.5986e-05
1.62068e-05
1.64455e-05
1.6704e-05
1.69844e-05
1.72889e-05
1.76199e-05
1.79798e-05
1.83715e-05
1.87978e-05
1.92622e-05
1.97681e-05
2.03197e-05
2.09215e-05
2.15786e-05
2.22965e-05
2.30816e-05
2.39412e-05
2.48834e-05
2.59178e-05
2.70558e-05
2.8311e-05
2.97012e-05
3.12498e-05
3.29904e-05
3.49731e-05
3.72771e-05
4.00331e-05
4.34661e-05
4.79814e-05
5.43497e-05
6.41503e-05
8.09748e-05
0.000113169
0.000155217
0.00019614
0.00024004
0.000288518
0.000344011
0.000408711
0.000484872
0.000574974
0.000681841
0.000808733
0.000959435
0.00113835
0.00135058
0.00160209
0.00189987
0.0022521
0.00266859
0.00316137
0.00374617
0.00444598
0.00530176
0.00641003
0.00809891
0.0121508
0.0224567
3.76983e-05
3.47365e-05
3.47208e-05
3.47861e-05
3.48684e-05
3.49667e-05
3.50779e-05
3.52e-05
3.53288e-05
3.54613e-05
3.55947e-05
3.57278e-05
3.5861e-05
3.59961e-05
3.61368e-05
3.6287e-05
3.64516e-05
3.66348e-05
3.68404e-05
3.70709e-05
3.7328e-05
3.76122e-05
3.79237e-05
3.82622e-05
3.86277e-05
3.90209e-05
3.94428e-05
3.98957e-05
4.03822e-05
4.09058e-05
4.14707e-05
4.20814e-05
4.27427e-05
4.34601e-05
4.42392e-05
4.50859e-05
4.60068e-05
4.70087e-05
4.80995e-05
4.92875e-05
5.05819e-05
5.19931e-05
5.35327e-05
5.52135e-05
5.70501e-05
5.90586e-05
6.12576e-05
6.3668e-05
6.63142e-05
6.92252e-05
7.24362e-05
7.59923e-05
7.99536e-05
8.44059e-05
8.94774e-05
9.53707e-05
0.00010242
0.000111201
0.00012275
0.000139037
0.000164102
0.000207129
0.000289468
0.00039691
0.000501488
0.000613666
0.000737514
0.00087926
0.00104449
0.00123896
0.00146896
0.00174169
0.00206544
0.00244981
0.00290598
0.0034469
0.00408768
0.00484595
0.00574243
0.00680186
0.00805451
0.00953992
0.0113158
0.0134843
0.0162834
0.0204915
0.0297833
0.0469899
9.24782e-05
8.52354e-05
8.51969e-05
8.53572e-05
8.55592e-05
8.58002e-05
8.6073e-05
8.63727e-05
8.66886e-05
8.70138e-05
8.73409e-05
8.76674e-05
8.79942e-05
8.83257e-05
8.86707e-05
8.90393e-05
8.94432e-05
8.98926e-05
9.03969e-05
9.09624e-05
9.1593e-05
9.22903e-05
9.30544e-05
9.38848e-05
9.47816e-05
9.57461e-05
9.67812e-05
9.78921e-05
9.90856e-05
0.00010037
0.000101756
0.000103254
0.000104876
0.000106636
0.000108547
0.000110624
0.000112883
0.000115341
0.000118017
0.000120931
0.000124106
0.000127568
0.000131344
0.000135467
0.000139972
0.000144898
0.000150292
0.000156204
0.000162694
0.000169834
0.000177709
0.000186431
0.000196146
0.000207065
0.000219502
0.000233954
0.000251241
0.000272773
0.000301091
0.000341028
0.000402481
0.000507965
0.000709858
0.000972938
0.00122905
0.00150374
0.00180691
0.0021538
0.00255807
0.00303371
0.00359608
0.00426269
0.00505366
0.00599233
0.00710577
0.00842536
0.00998759
0.011835
0.0140175
0.0165945
0.0196385
0.0232442
0.0275488
0.0327942
0.0395332
0.0494829
0.0694734
0.096267
0.00022009
0.00020293
0.000202839
0.00020322
0.000203701
0.000204275
0.000204924
0.000205637
0.000206389
0.000207163
0.000207942
0.000208719
0.000209497
0.000210286
0.000211107
0.000211984
0.000212945
0.000214015
0.000215215
0.000216561
0.000218062
0.000219721
0.00022154
0.000223516
0.000225651
0.000227946
0.00023041
0.000233054
0.000235894
0.000238951
0.000242249
0.000245815
0.000249676
0.000253864
0.000258412
0.000263355
0.000268731
0.00027458
0.000280947
0.000287882
0.000295438
0.000303675
0.000312662
0.000322472
0.000333191
0.000344914
0.000357747
0.000371814
0.000387257
0.000404243
0.00042298
0.000443729
0.000466841
0.000492816
0.000522402
0.00055678
0.000597899
0.000649113
0.000716465
0.000811445
0.000957579
0.00120839
0.00168854
0.00231295
0.00292096
0.00357296
0.00429224
0.00511496
0.00607336
0.00720045
0.00853243
0.0101104
0.0119817
0.014201
0.0168315
0.0199465
0.023631
0.0279838
0.0331204
0.0391778
0.0463231
0.0547728
0.0648398
0.0770697
0.0926781
0.115186
0.155877
0.195079
0.000512118
0.000472437
0.000472225
0.000473112
0.000474231
0.000475566
0.000477078
0.000478738
0.000480488
0.000482289
0.000484101
0.000485909
0.000487719
0.000489555
0.000491466
0.000493507
0.000495743
0.000498232
0.000501025
0.000504157
0.000507649
0.000511511
0.000515743
0.000520342
0.000525309
0.00053065
0.000536383
0.000542535
0.000549144
0.000556257
0.000563931
0.000572226
0.00058121
0.000590955
0.000601537
0.000613037
0.000625545
0.000639153
0.000653967
0.0006701
0.000687678
0.000706842
0.000727747
0.000750569
0.000775504
0.000802772
0.000832623
0.000865342
0.00090126
0.000940767
0.000984343
0.0010326
0.00108634
0.00114674
0.00121554
0.00129547
0.00139107
0.00151013
0.0016667
0.00188747
0.00222709
0.00280989
0.00392595
0.00537301
0.00678263
0.00829381
0.0099598
0.0118644
0.0140818
0.0166877
0.0197652
0.0234082
0.0277246
0.0328386
0.038894
0.0460562
0.0545166
0.0644971
0.0762556
0.0900971
0.106391
0.125613
0.148446
0.176063
0.210983
0.259848
0.338535
0.392818
0.0011713
0.00108132
0.00108083
0.00108286
0.00108542
0.00108847
0.00109193
0.00109573
0.00109973
0.00110385
0.001108
0.00111213
0.00111627
0.00112047
0.00112484
0.00112951
0.00113463
0.00114032
0.00114671
0.00115387
0.00116186
0.00117069
0.00118037
0.00119089
0.00120225
0.00121446
0.00122757
0.00124164
0.00125676
0.00127303
0.00129058
0.00130955
0.00133009
0.00135238
0.00137658
0.00140287
0.00143147
0.00146259
0.00149647
0.00153335
0.00157354
0.00161736
0.00166515
0.00171733
0.00177433
0.00183667
0.0019049
0.00197969
0.00206179
0.00215208
0.00225167
0.00236193
0.00248475
0.00262275
0.00277993
0.00296253
0.00318091
0.00345286
0.00381044
0.00431456
0.00508989
0.00642011
0.00896862
0.0122587
0.0154654
0.0189018
0.0226865
0.0270099
0.032039
0.0379439
0.0449098
0.0531464
0.0628928
0.0744243
0.0880571
0.104154
0.123132
0.145473
0.171731
0.20256
0.238741
0.281276
0.331584
0.392047
0.467528
0.569276
0.71399
0.786159
0.00264334
0.00244258
0.00244149
0.00244607
0.00245185
0.00245874
0.00246655
0.00247512
0.00248416
0.00249346
0.00250281
0.00251215
0.00252149
0.00253096
0.00254082
0.00255135
0.00256289
0.00257574
0.00259015
0.00260632
0.00262434
0.00264427
0.00266611
0.00268985
0.00271549
0.00274305
0.00277264
0.00280438
0.00283849
0.0028752
0.00291479
0.00295759
0.00300394
0.00305422
0.00310881
0.00316814
0.00323265
0.00330285
0.00337925
0.00346246
0.00355311
0.00365193
0.00375972
0.00387738
0.00400592
0.00414647
0.00430032
0.00446893
0.004654
0.00485754
0.005082
0.00533051
0.00560726
0.00591822
0.00627233
0.00668368
0.00717555
0.00778802
0.00859318
0.00972807
0.0114729
0.0144655
0.0202028
0.0275625
0.0347418
0.0424308
0.050887
0.0605362
0.0717462
0.0848898
0.100372
0.118647
0.140232
0.165718
0.19578
0.231186
0.272815
0.321666
0.378888
0.44581
0.52401
0.615477
0.722982
0.85102
1.0081
1.21046
1.46326
1.55842
0.00590257
0.00546098
0.00545856
0.00546878
0.00548168
0.00549708
0.00551451
0.00553365
0.00555383
0.0055746
0.00559549
0.00561633
0.00563718
0.00565833
0.00568034
0.00570385
0.00572961
0.00575828
0.00579045
0.00582653
0.00586677
0.00591127
0.00596003
0.00601302
0.00607024
0.00613178
0.00619782
0.00626868
0.0063448
0.00642673
0.0065151
0.00661062
0.00671407
0.00682626
0.00694807
0.00708046
0.00722441
0.00738103
0.0075515
0.00773712
0.00793934
0.00815976
0.00840019
0.0086626
0.00894926
0.00926268
0.00960571
0.0099816
0.0103941
0.0108478
0.011348
0.0119017
0.0125183
0.013211
0.0139996
0.0149156
0.0160107
0.0173739
0.0191657
0.0216904
0.02557
0.0322211
0.0449844
0.0612047
0.0770479
0.0940012
0.112607
0.133803
0.158382
0.187143
0.220945
0.260748
0.307632
0.362825
0.427712
0.503856
0.59302
0.697185
0.818588
0.959777
1.12372
1.31407
1.53577
1.79643
2.10886
2.4902
2.90778
3.03624
0.0130691
0.01211
0.0121047
0.0121274
0.0121559
0.01219
0.0122286
0.012271
0.0123157
0.0123616
0.0124079
0.012454
0.0125001
0.0125469
0.0125956
0.0126476
0.0127046
0.012768
0.0128392
0.012919
0.0130081
0.0131065
0.0132144
0.0133317
0.0134583
0.0135944
0.0137405
0.0138973
0.0140657
0.0142469
0.0144424
0.0146537
0.0148825
0.0151306
0.0154
0.0156927
0.016011
0.0163573
0.0167341
0.0171445
0.0175914
0.0180786
0.0186099
0.0191898
0.0198231
0.0205154
0.0212731
0.0221032
0.023014
0.0240155
0.0251195
0.0263414
0.0277016
0.0292294
0.0309684
0.0329876
0.0354011
0.0384048
0.0423511
0.0479091
0.0564436
0.0710648
0.0991628
0.134383
0.168853
0.205693
0.245998
0.291807
0.344785
0.406592
0.478999
0.563954
0.663632
0.780465
0.917161
1.07672
1.26247
1.47806
1.7275
2.01526
2.34633
2.72665
3.16384
3.66861
4.25526
4.92755
5.57194
5.7546
0.0287382
0.0266801
0.0266685
0.0267183
0.026781
0.0268559
0.0269407
0.0270339
0.0271321
0.0272331
0.0273347
0.027436
0.0275373
0.0276401
0.027747
0.0278611
0.0279862
0.0281255
0.0282818
0.0284571
0.0286526
0.0288688
0.0291058
0.0293632
0.0296413
0.0299402
0.030261
0.0306052
0.0309749
0.0313727
0.0318017
0.0322654
0.0327675
0.0333119
0.033903
0.0345453
0.0352436
0.0360031
0.0368296
0.0377295
0.0387095
0.0397776
0.0409422
0.0422129
0.0436006
0.0451173
0.0467767
0.0485944
0.0505885
0.0527802
0.0551957
0.0578682
0.0608424
0.0641817
0.0679814
0.0723918
0.0776612
0.0842163
0.0928243
0.104939
0.123522
0.155326
0.216573
0.291802
0.365662
0.444452
0.530268
0.627464
0.739436
0.86951
1.02117
1.1982
1.40472
1.64526
1.92474
2.24848
2.62214
3.05176
3.54367
4.10448
4.74121
5.46147
6.274
7.18845
8.20899
9.29558
10.2028
10.451
0.0628388
0.0584715
0.0584467
0.0585552
0.0586922
0.0588557
0.059041
0.0592445
0.0594589
0.0596795
0.0599013
0.0601224
0.0603434
0.0605674
0.0608005
0.0610493
0.061322
0.0616257
0.0619665
0.0623488
0.0627753
0.063247
0.0637638
0.0643254
0.0649318
0.0655838
0.0662833
0.0670338
0.0678397
0.0687069
0.069642
0.0706525
0.0717465
0.0729328
0.0742205
0.0756194
0.0771402
0.0787941
0.0805936
0.0825523
0.0846852
0.087009
0.0895424
0.0923059
0.0953229
0.0986195
0.102225
0.106173
0.110502
0.115259
0.120499
0.126295
0.132741
0.139975
0.148202
0.157746
0.169142
0.18331
0.201901
0.228039
0.268069
0.336485
0.468631
0.626136
0.781567
0.94693
1.12585
1.32749
1.55847
1.82513
2.13392
2.49166
2.90556
3.38327
3.93277
4.56224
5.27991
6.09389
7.01186
8.04085
9.18692
10.4548
11.8469
13.3582
14.9566
16.5148
17.6257
17.8783
0.136763
0.127599
0.127546
0.127781
0.128079
0.128434
0.128836
0.129278
0.129743
0.130222
0.130703
0.131183
0.131662
0.132147
0.132652
0.13319
0.133781
0.134439
0.135177
0.136005
0.136929
0.137952
0.139072
0.140289
0.141603
0.143015
0.144531
0.146156
0.147901
0.149779
0.151803
0.15399
0.156357
0.158924
0.161709
0.164735
0.168023
0.171598
0.175487
0.179719
0.184326
0.189344
0.194812
0.200774
0.207281
0.214388
0.222157
0.23066
0.239979
0.250212
0.261479
0.27393
0.28777
0.303289
0.320926
0.34137
0.36576
0.396056
0.435765
0.49151
0.576685
0.721976
1.00382
1.32501
1.64474
1.98355
2.34659
2.75279
3.21432
3.74234
4.34779
5.04164
5.83489
6.7385
7.76293
8.91781
10.2114
11.6501
13.2375
14.9739
16.8547
18.8691
20.9951
23.187
25.3395
27.2085
28.2575
28.2939
0.296489
0.277478
0.277368
0.277875
0.278516
0.279282
0.28015
0.281104
0.282108
0.283141
0.284179
0.285212
0.286243
0.287287
0.288372
0.28953
0.2908
0.292214
0.293802
0.295585
0.297574
0.299774
0.302185
0.304805
0.307633
0.310672
0.313932
0.317427
0.321179
0.325215
0.329565
0.334263
0.339348
0.344859
0.350838
0.357331
0.364385
0.372053
0.38039
0.389458
0.399326
0.410068
0.421768
0.43452
0.448428
0.463608
0.480191
0.498327
0.518188
0.539979
0.563947
0.59041
0.619795
0.652711
0.690075
0.733334
0.784883
0.848826
0.932503
1.04971
1.2282
1.53183
2.12452
2.75572
3.39377
4.06597
4.77599
5.56225
6.44514
7.44222
8.56932
9.84096
11.27
12.8674
14.641
16.5948
18.7282
21.0342
23.4991
26.1
28.8035
31.5616
34.3029
36.9128
39.1966
40.8278
41.2524
40.6213
0.640606
0.601659
0.601437
0.60252
0.603891
0.605533
0.607395
0.609441
0.611595
0.613809
0.616029
0.618238
0.62044
0.622668
0.624981
0.62745
0.630157
0.633173
0.636562
0.640368
0.644615
0.649315
0.654464
0.660059
0.666097
0.672585
0.67954
0.686996
0.694996
0.703597
0.712865
0.722872
0.733697
0.745425
0.758144
0.77195
0.786942
0.803229
0.820929
0.84017
0.861093
0.883855
0.908629
0.935607
0.965004
0.99706
1.03204
1.07026
1.11207
1.15788
1.20819
1.26367
1.32518
1.39398
1.47194
1.56205
1.66923
1.80193
1.97516
2.21705
2.5836
3.20479
4.42826
5.60232
6.82389
8.09965
9.41874
10.8581
12.4474
14.2089
16.1597
18.3117
20.671
23.2371
26.0013
28.9458
32.0424
35.2514
38.5208
41.7852
44.9637
47.9557
50.6319
52.8194
54.2887
54.7584
53.7972
51.9581
1.38002
1.3014
1.30097
1.30326
1.30617
1.30966
1.31362
1.31798
1.32256
1.32727
1.33198
1.33666
1.34132
1.34602
1.3509
1.35611
1.36182
1.36818
1.37534
1.38338
1.39236
1.4023
1.4132
1.42503
1.43779
1.4515
1.46619
1.48193
1.49881
1.51694
1.53647
1.55755
1.58034
1.60501
1.63175
1.66076
1.69223
1.72641
1.76351
1.80381
1.8476
1.89518
1.94691
2.00317
2.0644
2.13108
2.20374
2.28299
2.36953
2.46418
2.56795
2.68212
2.80842
2.94936
3.10868
3.29239
3.51033
3.77938
4.12944
4.61591
5.34788
6.58226
9.04439
11.0457
13.2535
15.5285
17.806
20.2402
22.8631
25.6931
28.7356
31.9835
35.4175
39.0044
42.6973
46.4348
50.142
53.7311
57.1036
60.1511
62.7565
64.793
66.1232
66.6016
66.1013
64.5335
61.6452
58.4012
2.96473
2.80905
2.80822
2.81302
2.81913
2.82648
2.83482
2.844
2.85365
2.86354
2.87343
2.88322
2.89294
2.90273
2.91288
2.92369
2.93555
2.94879
2.9637
2.98047
2.9992
3.01995
3.04269
3.06738
3.094
3.12258
3.15318
3.18593
3.22102
3.2587
3.29924
3.34295
3.39018
3.44126
3.49659
3.55654
3.62153
3.69201
3.76844
3.85135
3.9413
4.0389
4.14484
4.25987
4.38481
4.52058
4.66821
4.82886
5.00384
5.1947
5.40335
5.6322
5.88457
6.16521
6.48137
6.84458
7.27387
7.80163
8.48486
9.42784
10.832
13.1863
17.9662
20.8894
24.5715
28.2835
31.8169
35.484
39.298
43.2526
47.3192
51.4496
55.577
59.6184
63.4767
67.0446
70.2093
72.8574
74.8807
76.1805
76.6715
76.287
74.9867
72.775
69.7404
66.002
61.3919
57.2888
6.35211
6.05187
6.05042
6.06027
6.07287
6.0881
6.10543
6.1245
6.14452
6.16501
6.18542
6.20555
6.22544
6.2454
6.26603
6.288
6.31212
6.33907
6.36948
6.40374
6.44208
6.48456
6.53112
6.58166
6.63613
6.69453
6.75698
6.82375
6.8952
6.97181
7.05414
7.1428
7.23846
7.34181
7.45359
7.57455
7.70549
7.84724
8.00071
8.16685
8.34672
8.54147
8.75233
8.98068
9.22802
9.49599
9.78643
10.1014
10.4431
10.8144
11.2186
11.6599
12.1442
12.6801
13.2808
13.9672
14.7741
15.76
17.0271
18.7583
21.2975
25.532
34.3429
37.3356
42.8294
48.1506
52.8016
57.4295
61.9865
66.4198
70.6525
74.5894
78.1229
81.1396
83.5277
85.1854
86.0281
85.9956
85.0564
83.2119
80.4983
76.9913
72.8126
68.1417
63.2319
58.2382
52.9624
49.1105
13.5714
13.0152
13.0129
13.0326
13.058
13.0888
13.1241
13.1628
13.2035
13.245
13.2861
13.3263
13.3658
13.4052
13.4457
13.4888
13.5362
13.5892
13.6493
13.7172
13.7933
13.8777
13.9703
14.0708
14.1789
14.2947
14.4183
14.5502
14.691
14.8417
15.0033
15.177
15.3641
15.5659
15.7836
16.0188
16.2728
16.5471
16.8433
17.163
17.508
17.8804
18.2821
18.7154
19.1827
19.6868
20.2304
20.8169
21.4497
22.1331
22.8724
23.6741
24.5478
25.5074
26.5748
27.7852
29.1965
30.9061
33.0793
36.0041
40.1999
47.1949
62.2491
61.8699
68.9138
75.1569
79.7416
84.0065
87.7848
90.984
93.5075
95.2608
96.1602
96.1414
95.1676
93.2355
90.3792
86.6697
82.2133
77.1473
71.6365
65.8693
60.0548
54.4173
49.1878
44.3699
39.8407
37.1358
28.9046
27.9408
27.9381
27.9754
28.0244
28.0848
28.154
28.2304
28.3102
28.3911
28.4705
28.5474
28.622
28.6954
28.7704
28.85
28.9376
29.0363
29.1487
29.2764
29.4202
29.5801
29.7556
29.9459
30.1503
30.3687
30.6011
30.8482
31.1113
31.3919
31.692
32.0135
32.3589
32.7301
33.1297
33.5597
34.0226
34.5206
35.0562
35.6318
36.2501
36.9137
37.6257
38.3892
39.2072
40.0834
41.0214
42.025
43.0987
44.2477
45.4783
46.7992
48.223
49.7693
51.4697
53.3755
55.5713
58.1961
61.4786
65.794
71.779
81.9609
104.93
92.8565
100.278
105.313
107.223
108.622
109.144
108.711
107.283
104.855
101.457
97.1549
92.0527
86.2856
80.0154
73.4209
66.6893
60.0074
53.5541
47.4935
41.9682
37.0914
32.9388
29.3649
26.783
25.1819
61.3384
59.8673
59.8657
59.9305
60.0185
60.1293
60.2577
60.3997
60.5473
60.6953
60.8381
60.9734
61.1013
61.2243
61.3479
61.4782
61.6225
61.7869
61.9767
62.1949
62.4428
62.7199
63.0246
63.3549
63.7087
64.0849
64.4831
64.9041
65.3497
65.8224
66.3251
66.8612
67.4341
68.0471
68.7035
69.4063
70.1587
70.9632
71.8227
72.7398
73.7172
74.7574
75.8632
77.037
78.2813
79.5985
80.9911
82.4612
84.0113
85.6444
87.3648
89.1793
91.0995
93.1458
95.3533
97.7808
100.524
103.734
107.638
112.562
119
131.139
160.546
122.876
129.207
129.705
125.647
121.545
116.664
110.989
104.581
97.5511
90.0475
82.2404
74.313
66.4497
58.8255
51.5968
44.8944
38.8192
33.4397
28.7913
24.8762
21.6654
19.1016
17.0834
17.3338
15.6863
129.628
127.987
127.988
128.079
128.214
128.393
128.605
128.842
129.085
129.322
129.543
129.741
129.916
130.073
130.223
130.378
130.554
130.761
131.011
131.309
131.656
132.051
132.487
132.96
133.464
133.994
134.549
135.128
135.733
136.367
137.033
137.735
138.479
139.267
140.102
140.988
141.926
142.917
143.961
145.06
146.212
147.416
148.671
149.975
151.326
152.719
154.15
155.615
157.107
158.622
160.153
161.698
163.256
164.836
166.457
168.154
169.977
171.993
174.249
176.692
179.203
189.112
216.967
139.664
144.583
137.697
125.876
115.539
105.293
95.1306
85.1308
75.4141
66.1155
57.3656
49.278
41.9406
35.4106
29.7127
24.8407
20.7602
17.4139
14.7264
12.6104
10.9728
9.72106
9.04666
13.0048
9.28363
272.753
272.854
272.838
272.883
273.006
273.21
273.47
273.766
274.06
274.325
274.535
274.677
274.749
274.76
274.732
274.689
274.661
274.67
274.735
274.865
275.059
275.31
275.605
275.927
276.262
276.596
276.922
277.233
277.529
277.811
278.081
278.343
278.597
278.846
279.088
279.322
279.544
279.747
279.925
280.069
280.169
280.216
280.196
280.097
279.905
279.604
279.178
278.609
277.879
276.968
275.856
274.523
272.947
271.106
268.97
266.493
263.583
260.049
255.481
249.027
239.573
240.553
253.034
135.288
138.365
123.901
106.155
91.9579
79.1226
67.5122
57.0708
47.775
39.607
32.5384
26.5232
21.4956
17.3718
14.0538
11.4349
9.40543
7.85765
6.69094
5.81529
5.15389
4.64434
4.99277
13.902
5.4035
571.828
579.593
579.395
579.025
578.776
578.662
578.624
578.616
578.555
578.382
578.038
577.49
576.734
575.784
574.682
573.474
572.217
570.953
569.714
568.511
567.336
566.166
564.964
563.692
562.31
560.784
559.088
557.204
555.122
552.836
550.341
547.636
544.715
541.573
538.2
534.584
530.709
526.558
522.113
517.352
512.256
506.802
500.972
494.743
488.098
481.017
473.483
465.479
456.991
448.002
438.497
428.454
417.838
406.594
394.618
381.728
367.591
351.615
332.773
309.326
279.408
266.022
256.201
121.613
112.241
93.283
75.0224
61.158
49.5299
39.8063
31.7395
25.1253
19.7809
15.535
12.2234
9.68989
7.78808
6.38431
5.36028
4.61491
4.0652
3.64602
3.30896
3.02035
2.75873
3.95504
19.7232
3.03272
979.729
1005.1
1004.25
1002.57
1001.01
999.594
998.224
996.808
995.199
993.289
990.968
988.178
984.902
981.162
977.02
972.551
967.84
962.949
957.924
952.772
947.468
941.962
936.185
930.059
923.512
916.48
908.914
900.779
892.054
882.725
872.785
862.228
851.049
839.24
826.794
813.699
799.942
785.514
770.402
754.602
738.107
720.922
703.05
684.507
665.309
645.481
625.054
604.062
582.544
560.536
538.07
515.16
491.789
467.882
443.273
417.649
390.479
360.927
327.763
289.317
243.943
222.465
220.459
130.933
68.4455
51.7015
41.2422
32.0208
24.8362
19.2921
15.0741
11.9207
9.60907
7.94821
6.7755
5.95499
5.376
4.95157
4.61644
4.32448
4.04574
3.76324
3.46985
3.16528
2.85349
4.95677
30.4681
1.28017
303.634
322.087
322.062
321.349
320.647
319.979
319.309
318.607
317.826
316.929
315.881
314.663
313.268
311.703
309.986
308.141
306.193
304.16
302.056
299.88
297.625
295.271
292.796
290.175
287.384
284.403
281.217
277.815
274.191
270.342
266.265
261.961
257.43
252.671
247.686
242.473
237.034
231.37
225.484
219.379
213.062
206.541
199.826
192.932
185.871
178.662
171.323
163.872
156.327
148.701
141.002
133.222
125.329
117.257
108.89
100.049
90.4895
79.9407
68.2242
55.5565
40.4088
47.0827
147.308
200.144
11.6897
5.8934
12.0077
10.5066
9.59234
9.07099
8.7984
8.66469
8.58709
8.50575
8.38042
8.18749
7.91707
7.56996
7.15477
6.68516
6.17743
5.64851
5.11448
4.58943
4.08493
7.30632
46.3498
0.160178
7.49419
4.8688
4.78633
4.77081
4.75707
4.74348
4.72966
4.71515
4.69928
4.68153
4.66137
4.63853
4.61284
4.58435
4.55321
4.51972
4.48416
4.44685
4.408
4.3677
4.32591
4.28242
4.23696
4.18918
4.13876
4.08542
4.02894
3.96919
3.90612
3.83973
3.77007
3.69725
3.62139
3.54265
3.4612
3.37725
3.29105
3.20287
3.11304
3.0219
2.92989
2.8375
2.74528
2.65388
2.56403
2.47662
2.3927
2.31364
2.24132
2.17849
2.12945
2.10116
2.10525
2.16151
2.3042
2.5937
3.13825
4.13351
5.92562
9.07762
9.47029
32.7576
162.39
238.625
14.1207
4.16346
14.5642
14.4427
14.3073
14.1214
13.8535
13.4843
13.0063
12.423
11.7461
10.9935
10.1863
9.34705
8.49759
7.65779
6.84451
6.07115
5.34751
4.67994
4.07172
7.88533
58.5098
0.141445
2.79969
0.897643
0.884199
0.8822
0.879748
0.877203
0.874628
0.871906
0.868963
0.865705
0.862074
0.858037
0.85355
0.848604
0.843152
0.837213
0.830784
0.823935
0.816713
0.809189
0.801393
0.793329
0.78498
0.776301
0.767264
0.757824
0.747967
0.737666
0.726915
0.715713
0.704072
0.692023
0.679612
0.666916
0.654028
0.641075
0.628202
0.615583
0.603417
0.591935
0.581397
0.572103
0.564398
0.558681
0.555416
0.555157
0.55859
0.566609
0.58047
0.602074
0.634513
0.68308
0.757199
0.874076
1.06571
1.39231
1.96746
3.00121
4.85898
8.09388
6.54519
33.1684
195.721
295.897
16.32
2.35613
15.9933
16.1796
16.1156
15.8547
15.4263
14.8504
14.1459
13.334
12.4389
11.4865
10.5034
9.51469
8.54311
7.60775
6.72359
5.90137
5.14787
4.46629
3.85685
8.47821
72.7007
0.289606
1.86601
0.0833315
0.0684421
0.0677218
0.0674884
0.067338
0.067188
0.0670308
0.066832
0.0666044
0.0663611
0.0661217
0.0658987
0.0656677
0.065406
0.0650688
0.0646481
0.0641433
0.0635874
0.0630118
0.0624456
0.0619086
0.0614113
0.0609734
0.0606139
0.0603647
0.0602495
0.0602908
0.0605002
0.0608869
0.0614622
0.062246
0.0632754
0.0646053
0.0663148
0.0685046
0.0713
0.0748481
0.0793194
0.0849075
0.0918312
0.100337
0.110706
0.123254
0.138347
0.156418
0.177997
0.203782
0.234772
0.272524
0.319653
0.380781
0.464362
0.586185
0.776165
1.09152
1.64177
2.63244
4.42736
7.59301
5.95251
31.2785
196.572
297.356
14.7741
1.64884
15.5117
15.6426
15.52
15.1982
14.7087
14.0746
13.3177
12.4614
11.5319
10.5562
9.56151
8.57306
7.61295
6.69931
5.84583
5.06176
4.35225
3.71891
3.16043
7.46716
69.7569
0.554837
2.17459
3.04781
3.12465
3.12059
3.11221
3.10361
3.09487
3.08562
3.07552
3.06419
3.05135
3.03682
3.02049
3.00241
2.98262
2.96132
2.93861
2.91472
2.8897
2.86364
2.83647
2.80807
2.77827
2.74685
2.71363
2.67839
2.64102
2.6014
2.55946
2.51516
2.46848
2.41944
2.36806
2.31441
2.25853
2.20056
2.14059
2.07881
2.01538
1.95056
1.88459
1.81781
1.75059
1.68336
1.61662
1.55094
1.48692
1.42522
1.36651
1.31146
1.26071
1.21504
1.17584
1.14661
1.13693
1.17182
1.31323
1.7049
2.65566
4.7625
4.11273
24.5378
156.994