/*--------------------------------*- C++ -*----------------------------------*\
| =========                 |                                                 |
| \\      /  F ield         | OpenFOAM: The Open Source CFD Toolbox           |
|  \\    /   O peration     | Version:  5.x                                   |
|   \\  /    A nd           | Web:      www.OpenFOAM.org                      |
|    \\/     M anipulation  |                                                 |
\*---------------------------------------------------------------------------*/
FoamFile
{
    version     2.0;
    format      ascii;
    class       volVectorField;
    location    "0";
    object      U;
}
// * * * * * * * * * * * * * * * * * * * * * * * * * * * * * * * * * * * * * //

dimensions      [0 1 -1 0 0 0 0];

internalField   nonuniform List<vector> 
20540
(
(44.1999 1.54779e-08 0)
(44.1995 6.99456e-08 0)
(44.1999 3.46758e-08 0)
(44.1995 1.46764e-07 0)
(44.1999 4.32742e-08 0)
(44.1995 1.62799e-07 0)
(44.1999 5.33985e-08 0)
(44.1995 1.82747e-07 0)
(44.1999 6.57e-08 0)
(44.1995 2.06419e-07 0)
(44.1999 8.07276e-08 0)
(44.1995 2.34818e-07 0)
(44.1999 9.83858e-08 0)
(44.1995 2.69027e-07 0)
(44.1999 1.1985e-07 0)
(44.1995 3.10479e-07 0)
(44.1999 1.45882e-07 0)
(44.1995 3.60762e-07 0)
(44.1999 1.77304e-07 0)
(44.1995 4.21621e-07 0)
(44.1999 2.15279e-07 0)
(44.1995 4.95142e-07 0)
(44.1999 2.61078e-07 0)
(44.1995 5.84119e-07 0)
(44.1999 3.16371e-07 0)
(44.1995 6.91854e-07 0)
(44.1999 3.83356e-07 0)
(44.1995 8.22202e-07 0)
(44.1999 4.64361e-07 0)
(44.1995 9.80124e-07 0)
(44.1999 5.62343e-07 0)
(44.1995 1.17144e-06 0)
(44.1999 6.80943e-07 0)
(44.1995 1.40336e-06 0)
(44.1999 8.24465e-07 0)
(44.1995 1.68482e-06 0)
(44.1999 9.98101e-07 0)
(44.1995 2.02691e-06 0)
(44.1999 1.20811e-06 0)
(44.1995 2.44357e-06 0)
(44.1999 1.46211e-06 0)
(44.1995 2.9526e-06 0)
(44.1999 1.76936e-06 0)
(44.1995 3.57727e-06 0)
(44.1999 2.14097e-06 0)
(44.1995 4.34856e-06 0)
(44.1999 2.59035e-06 0)
(44.1995 5.309e-06 0)
(44.1999 3.13366e-06 0)
(44.1995 6.51878e-06 0)
(44.1999 3.79036e-06 0)
(44.1995 8.06551e-06 0)
(44.1999 4.58366e-06 0)
(44.1995 1.00798e-05 0)
(44.1999 5.5411e-06 0)
(44.1995 1.27599e-05 0)
(44.1999 6.69466e-06 0)
(44.1995 1.64078e-05 0)
(44.1999 8.08012e-06 0)
(44.1995 2.14663e-05 0)
(44.1999 8.75653e-06 0)
(44.1995 2.39471e-05 0)
(44.1999 8.73671e-06 0)
(44.1995 2.3948e-05 0)
(44.1999 8.83368e-06 0)
(44.1995 2.508e-05 0)
(44.1999 8.88528e-06 0)
(44.1995 2.65757e-05 0)
(44.1999 8.92985e-06 0)
(44.1995 2.85714e-05 0)
(44.1999 8.29257e-06 0)
(44.1995 2.78483e-05 0)
(44.1999 7.03898e-06 0)
(44.1995 2.42258e-05 0)
(44.1999 5.9462e-06 0)
(44.1995 2.09229e-05 0)
(44.1999 5.00353e-06 0)
(44.1995 1.79548e-05 0)
(44.1999 4.19714e-06 0)
(44.1995 1.53219e-05 0)
(44.1999 3.51176e-06 0)
(44.1995 1.30115e-05 0)
(44.1999 2.93216e-06 0)
(44.1995 1.10021e-05 0)
(44.1999 2.4439e-06 0)
(44.1995 9.26729e-06 0)
(44.1999 2.03378e-06 0)
(44.1995 7.77865e-06 0)
(44.1999 1.69004e-06 0)
(44.1995 6.5077e-06 0)
(44.1999 1.40241e-06 0)
(44.1995 5.42723e-06 0)
(44.1999 1.16204e-06 0)
(44.1995 4.51193e-06 0)
(44.1999 9.6138e-07 0)
(44.1995 3.73891e-06 0)
(44.1999 7.93969e-07 0)
(44.1995 3.08764e-06 0)
(44.1999 6.54349e-07 0)
(44.1995 2.54003e-06 0)
(44.1999 5.37954e-07 0)
(44.1995 2.08042e-06 0)
(44.1999 4.41079e-07 0)
(44.1995 1.6953e-06 0)
(44.1999 3.60455e-07 0)
(44.1995 1.37288e-06 0)
(44.1999 2.93426e-07 0)
(44.1995 1.10323e-06 0)
(44.1999 2.37666e-07 0)
(44.1995 8.77931e-07 0)
(44.1999 1.90994e-07 0)
(44.1995 6.89992e-07 0)
(44.1999 1.52109e-07 0)
(44.1995 5.33297e-07 0)
(44.1999 1.19642e-07 0)
(44.1995 4.0255e-07 0)
(44.1999 9.24968e-08 0)
(44.1995 2.9305e-07 0)
(44.1999 7.0176e-08 0)
(44.1995 2.01972e-07 0)
(44.1999 5.18722e-08 0)
(44.1995 1.25741e-07 0)
(44.1999 3.65294e-08 0)
(44.1995 6.26679e-08 0)
(44.1999 2.34066e-08 0)
(44.1995 1.08431e-08 0)
(44.1999 1.29104e-08 0)
(44.1995 -3.34456e-08 0)
(44.1999 4.22494e-09 0)
(44.1995 -2.68787e-08 0)
(44.1989 7.81248e-08 0)
(44.1982 2.47997e-08 0)
(44.1977 4.9698e-08 0)
(44.1973 -4.97464e-09 0)
(44.1971 4.28326e-08 0)
(44.1969 -8.10558e-09 0)
(44.1968 4.37022e-08 0)
(44.1966 -6.62637e-09 0)
(44.1965 3.98228e-08 0)
(44.1964 -7.20004e-09 0)
(44.1963 3.61524e-08 0)
(44.1962 -8.71982e-09 0)
(44.1961 3.11807e-08 0)
(44.196 -9.66572e-09 0)
(44.1959 2.5088e-08 0)
(44.1959 -1.0849e-08 0)
(44.1958 1.74675e-08 0)
(44.1958 -1.20019e-08 0)
(44.1958 9.32677e-09 0)
(44.1958 -1.33513e-08 0)
(44.1958 2.16221e-09 0)
(44.1958 -1.4824e-08 0)
(44.1958 -4.5612e-09 0)
(44.1958 -1.60573e-08 0)
(44.1959 -1.08343e-08 0)
(44.1959 -1.80599e-08 0)
(44.196 -1.6383e-08 0)
(44.196 -2.06372e-08 0)
(44.1961 -2.1364e-08 0)
(44.1962 -2.47997e-08 0)
(44.1962 -2.86257e-08 0)
(44.1963 -3.49209e-08 0)
(44.1964 -4.5937e-08 0)
(44.1965 -6.31988e-08 0)
(44.1966 -9.07038e-08 0)
(44.1968 -1.32811e-07 0)
(44.197 -1.98424e-07 0)
(44.1973 -2.95895e-07 0)
(44.1978 -4.41099e-07 0)
(44.1983 -6.51453e-07 0)
(44.1991 -9.54154e-07 0)
(44.2002 -1.3807e-06 0)
(44.2017 -1.97465e-06 0)
(44.2037 -2.78999e-06 0)
(44.2065 -3.89596e-06 0)
(44.2101 -5.37813e-06 0)
(44.215 -7.34284e-06 0)
(44.2213 -9.92085e-06 0)
(44.2294 -1.32713e-05 0)
(44.2398 -1.75874e-05 0)
(44.2531 -2.31032e-05 0)
(44.2698 -3.01031e-05 0)
(44.2906 -3.89325e-05 0)
(44.3165 -5.00061e-05 0)
(44.3484 -6.38573e-05 0)
(44.3876 -8.10852e-05 0)
(44.4354 -0.000102551 0)
(44.4935 -0.000129174 0)
(44.5639 -0.000162361 0)
(44.6492 -0.000203695 0)
(44.7522 -0.000255539 0)
(44.8768 -0.000320856 0)
(45.0278 -0.000403952 0)
(45.1752 -0.000493136 0)
(45.3118 -0.000576243 0)
(45.4636 -0.000672958 0)
(45.6321 -0.00078586 0)
(45.8193 -0.000918036 0)
(46.0273 -0.00107339 0)
(46.2589 -0.00125686 0)
(46.517 -0.00147458 0)
(46.8054 -0.0017347 0)
(47.1287 -0.00204751 0)
(47.4924 -0.00242699 0)
(47.9036 -0.00289173 0)
(48.3712 -0.00346736 0)
(48.9066 -0.00418982 0)
(49.5251 -0.00511076 0)
(50.2471 -0.00630694 0)
(51.1011 -0.0078963 0)
(52.1281 -0.0100685 0)
(53.39 -0.0131459 0)
(54.9849 -0.0177154 0)
(57.0809 -0.024952 0)
(59.9983 -0.0375362 0)
(64.4538 -0.0629361 0)
(72.6024 -0.130736 0)
(98.4646 -0.519637 0)
(44.1989 1.59737e-07 0)
(44.1982 4.29968e-08 0)
(44.1977 1.01536e-07 0)
(44.1973 -1.95758e-08 0)
(44.1971 9.427e-08 0)
(44.1969 -2.63632e-08 0)
(44.1968 9.86938e-08 0)
(44.1966 -2.54367e-08 0)
(44.1965 9.03059e-08 0)
(44.1964 -2.81289e-08 0)
(44.1963 8.18794e-08 0)
(44.1962 -3.15347e-08 0)
(44.1961 7.12018e-08 0)
(44.196 -3.27063e-08 0)
(44.1959 5.75222e-08 0)
(44.1959 -3.47285e-08 0)
(44.1958 4.04589e-08 0)
(44.1958 -3.61566e-08 0)
(44.1958 2.24437e-08 0)
(44.1958 -3.72166e-08 0)
(44.1958 6.85613e-09 0)
(44.1958 -3.85728e-08 0)
(44.1958 -7.59426e-09 0)
(44.1958 -3.86415e-08 0)
(44.1959 -2.05109e-08 0)
(44.1959 -4.06528e-08 0)
(44.196 -3.15727e-08 0)
(44.196 -4.35493e-08 0)
(44.1961 -4.12144e-08 0)
(44.1962 -5.17769e-08 0)
(44.1962 -6.01045e-08 0)
(44.1963 -8.11394e-08 0)
(44.1964 -1.1369e-07 0)
(44.1965 -1.69127e-07 0)
(44.1966 -2.55625e-07 0)
(44.1968 -3.91924e-07 0)
(44.197 -6.01554e-07 0)
(44.1973 -9.16298e-07 0)
(44.1978 -1.38224e-06 0)
(44.1983 -2.05994e-06 0)
(44.1991 -3.03142e-06 0)
(44.2002 -4.40176e-06 0)
(44.2017 -6.30788e-06 0)
(44.2037 -8.92517e-06 0)
(44.2065 -1.24748e-05 0)
(44.2101 -1.72326e-05 0)
(44.215 -2.35397e-05 0)
(44.2213 -3.18163e-05 0)
(44.2294 -4.25726e-05 0)
(44.2398 -5.64305e-05 0)
(44.2531 -7.41411e-05 0)
(44.2698 -9.66174e-05 0)
(44.2906 -0.000124966 0)
(44.3165 -0.000160524 0)
(44.3484 -0.000204976 0)
(44.3876 -0.000260301 0)
(44.4354 -0.000329162 0)
(44.4935 -0.000414663 0)
(44.5639 -0.000521126 0)
(44.6492 -0.000653854 0)
(44.7522 -0.000820201 0)
(44.8768 -0.0010299 0)
(45.0278 -0.00129658 0)
(45.1752 -0.00158297 0)
(45.3118 -0.00184969 0)
(45.4636 -0.00216025 0)
(45.6321 -0.00252269 0)
(45.8193 -0.00294706 0)
(46.0273 -0.00344577 0)
(46.2589 -0.00403467 0)
(46.517 -0.00473353 0)
(46.8054 -0.00556833 0)
(47.1287 -0.0065724 0)
(47.4924 -0.00779036 0)
(47.9036 -0.00928215 0)
(48.3712 -0.0111299 0)
(48.9066 -0.013449 0)
(49.5251 -0.0164053 0)
(50.247 -0.020245 0)
(51.101 -0.0253468 0)
(52.128 -0.0323193 0)
(53.3899 -0.0421967 0)
(54.9846 -0.0568629 0)
(57.0805 -0.0800887 0)
(59.9973 -0.120475 0)
(64.4514 -0.201979 0)
(72.5899 -0.419371 0)
(97.3424 -1.63406 0)
(44.1989 1.68207e-07 0)
(44.1982 2.81184e-08 0)
(44.1977 1.06695e-07 0)
(44.1973 -4.05799e-08 0)
(44.1971 1.13889e-07 0)
(44.1969 -4.8804e-08 0)
(44.1968 1.23474e-07 0)
(44.1966 -5.22628e-08 0)
(44.1965 1.13543e-07 0)
(44.1964 -5.80546e-08 0)
(44.1963 1.0338e-07 0)
(44.1962 -6.18157e-08 0)
(44.1961 9.09805e-08 0)
(44.196 -6.25154e-08 0)
(44.1959 7.37965e-08 0)
(44.1959 -6.38131e-08 0)
(44.1958 5.25518e-08 0)
(44.1958 -6.30087e-08 0)
(44.1958 3.08056e-08 0)
(44.1958 -6.04145e-08 0)
(44.1958 1.23428e-08 0)
(44.1958 -5.80501e-08 0)
(44.1958 -4.36016e-09 0)
(44.1958 -5.33301e-08 0)
(44.1959 -1.81163e-08 0)
(44.1959 -5.06242e-08 0)
(44.196 -2.85803e-08 0)
(44.196 -4.83788e-08 0)
(44.1961 -3.76254e-08 0)
(44.1962 -5.69788e-08 0)
(44.1962 -6.6599e-08 0)
(44.1963 -1.06381e-07 0)
(44.1964 -1.61372e-07 0)
(44.1965 -2.63664e-07 0)
(44.1966 -4.19387e-07 0)
(44.1968 -6.71099e-07 0)
(44.197 -1.05375e-06 0)
(44.1973 -1.63343e-06 0)
(44.1978 -2.4876e-06 0)
(44.1983 -3.73264e-06 0)
(44.1991 -5.51302e-06 0)
(44.2002 -8.02645e-06 0)
(44.2017 -1.15196e-05 0)
(44.2037 -1.63175e-05 0)
(44.2065 -2.28229e-05 0)
(44.2101 -3.15438e-05 0)
(44.215 -4.31044e-05 0)
(44.2213 -5.82763e-05 0)
(44.2294 -7.79943e-05 0)
(44.2398 -0.0001034 0)
(44.2531 -0.00013587 0)
(44.2698 -0.000177076 0)
(44.2906 -0.000229046 0)
(44.3165 -0.000294238 0)
(44.3484 -0.000375703 0)
(44.3876 -0.000477144 0)
(44.4354 -0.000603303 0)
(44.4935 -0.000760077 0)
(44.5639 -0.000955122 0)
(44.6492 -0.00119847 0)
(44.7522 -0.00150327 0)
(44.8768 -0.0018877 0)
(45.0278 -0.00237643 0)
(45.1752 -0.00290149 0)
(45.3118 -0.00339033 0)
(45.4636 -0.00395971 0)
(45.6321 -0.00462405 0)
(45.8193 -0.00540203 0)
(46.0273 -0.00631617 0)
(46.2589 -0.00739554 0)
(46.517 -0.00867647 0)
(46.8054 -0.0102064 0)
(47.1287 -0.0120467 0)
(47.4924 -0.0142789 0)
(47.9036 -0.0170132 0)
(48.3711 -0.0203999 0)
(48.9065 -0.0246507 0)
(49.525 -0.0300694 0)
(50.2469 -0.0371072 0)
(51.1008 -0.046458 0)
(52.1277 -0.0592371 0)
(53.3894 -0.0773394 0)
(54.9839 -0.104217 0)
(57.0793 -0.146777 0)
(59.9949 -0.220774 0)
(64.445 -0.370052 0)
(72.5579 -0.767483 0)
(96.0247 -2.9014 0)
(44.1989 1.78564e-07 0)
(44.1982 1.04526e-08 0)
(44.1977 1.13796e-07 0)
(44.1973 -6.57783e-08 0)
(44.1971 1.37696e-07 0)
(44.1969 -7.61858e-08 0)
(44.1968 1.53235e-07 0)
(44.1966 -8.46465e-08 0)
(44.1965 1.41101e-07 0)
(44.1964 -9.38993e-08 0)
(44.1963 1.29337e-07 0)
(44.1962 -9.79746e-08 0)
(44.1961 1.1495e-07 0)
(44.196 -9.86867e-08 0)
(44.1959 9.30156e-08 0)
(44.1959 -9.89849e-08 0)
(44.1958 6.69588e-08 0)
(44.1958 -9.51458e-08 0)
(44.1958 4.11333e-08 0)
(44.1958 -8.82852e-08 0)
(44.1958 1.90331e-08 0)
(44.1958 -8.14407e-08 0)
(44.1958 -5.33549e-10 0)
(44.1958 -7.17458e-08 0)
(44.1959 -1.52718e-08 0)
(44.1959 -6.26788e-08 0)
(44.196 -2.45236e-08 0)
(44.196 -5.41866e-08 0)
(44.1961 -3.32889e-08 0)
(44.1962 -6.36324e-08 0)
(44.1962 -7.44806e-08 0)
(44.1963 -1.36934e-07 0)
(44.1964 -2.1855e-07 0)
(44.1965 -3.77897e-07 0)
(44.1966 -6.17303e-07 0)
(44.1968 -1.00913e-06 0)
(44.197 -1.6007e-06 0)
(44.1973 -2.50101e-06 0)
(44.1978 -3.82509e-06 0)
(44.1983 -5.75607e-06 0)
(44.1991 -8.51511e-06 0)
(44.2002 -1.24111e-05 0)
(44.2017 -1.78245e-05 0)
(44.2037 -2.52604e-05 0)
(44.2065 -3.53415e-05 0)
(44.2101 -4.88564e-05 0)
(44.215 -6.67723e-05 0)
(44.2213 -9.02853e-05 0)
(44.2294 -0.000120845 0)
(44.2398 -0.000160219 0)
(44.2531 -0.000210544 0)
(44.2698 -0.000274409 0)
(44.2906 -0.000354954 0)
(44.3165 -0.000455995 0)
(44.3484 -0.000582235 0)
(44.3876 -0.000739463 0)
(44.4354 -0.000934938 0)
(44.4935 -0.00117793 0)
(44.5639 -0.00148014 0)
(44.6492 -0.0018573 0)
(44.7522 -0.0023296 0)
(44.8768 -0.00292539 0)
(45.0278 -0.00368273 0)
(45.1752 -0.00449654 0)
(45.3118 -0.00525407 0)
(45.4635 -0.00613654 0)
(45.6321 -0.0071661 0)
(45.8193 -0.00837183 0)
(46.0273 -0.00978851 0)
(46.2588 -0.0114612 0)
(46.5169 -0.0134463 0)
(46.8053 -0.015817 0)
(47.1286 -0.0186689 0)
(47.4923 -0.022128 0)
(47.9035 -0.0263653 0)
(48.371 -0.0316136 0)
(48.9064 -0.0382009 0)
(49.5248 -0.0465981 0)
(50.2466 -0.0575041 0)
(51.1004 -0.071994 0)
(52.1272 -0.0917955 0)
(53.3886 -0.119844 0)
(54.9826 -0.161485 0)
(57.0768 -0.227415 0)
(59.9899 -0.342011 0)
(64.4322 -0.573026 0)
(72.4961 -1.18597 0)
(94.4919 -4.32335 0)
(44.1989 1.90454e-07 0)
(44.1982 -1.06655e-08 0)
(44.1977 1.22662e-07 0)
(44.1973 -9.64552e-08 0)
(44.1971 1.66186e-07 0)
(44.1969 -1.09442e-07 0)
(44.1968 1.89175e-07 0)
(44.1966 -1.24084e-07 0)
(44.1965 1.74542e-07 0)
(44.1964 -1.37204e-07 0)
(44.1963 1.60411e-07 0)
(44.1962 -1.41864e-07 0)
(44.1961 1.43865e-07 0)
(44.196 -1.42082e-07 0)
(44.1959 1.16106e-07 0)
(44.1959 -1.4123e-07 0)
(44.1958 8.44299e-08 0)
(44.1958 -1.33958e-07 0)
(44.1958 5.37979e-08 0)
(44.1958 -1.22125e-07 0)
(44.1958 2.71934e-08 0)
(44.1958 -1.09746e-07 0)
(44.1958 4.29155e-09 0)
(44.1958 -9.42936e-08 0)
(44.1959 -1.17944e-08 0)
(44.1959 -7.72956e-08 0)
(44.196 -1.94809e-08 0)
(44.196 -6.14204e-08 0)
(44.1961 -2.80637e-08 0)
(44.1962 -7.16167e-08 0)
(44.1962 -8.39939e-08 0)
(44.1963 -1.73631e-07 0)
(44.1964 -2.87779e-07 0)
(44.1965 -5.15946e-07 0)
(44.1966 -8.56913e-07 0)
(44.1968 -1.41791e-06 0)
(44.197 -2.26242e-06 0)
(44.1973 -3.55043e-06 0)
(44.1978 -5.44304e-06 0)
(44.1983 -8.20389e-06 0)
(44.1991 -1.21469e-05 0)
(44.2002 -1.77151e-05 0)
(44.2017 -2.54518e-05 0)
(44.2037 -3.60789e-05 0)
(44.2065 -5.04854e-05 0)
(44.2101 -6.97997e-05 0)
(44.215 -9.54041e-05 0)
(44.2213 -0.000129007 0)
(44.2294 -0.000172682 0)
(44.2398 -0.000228955 0)
(44.2531 -0.000300879 0)
(44.2698 -0.000392155 0)
(44.2906 -0.000507267 0)
(44.3165 -0.000651675 0)
(44.3484 -0.000832081 0)
(44.3876 -0.0010568 0)
(44.4354 -0.00133612 0)
(44.4935 -0.00168342 0)
(44.5639 -0.00211526 0)
(44.6492 -0.0026543 0)
(44.7522 -0.00332923 0)
(44.8768 -0.0041807 0)
(45.0278 -0.00526299 0)
(45.1752 -0.00642608 0)
(45.3118 -0.00750864 0)
(45.4635 -0.00876987 0)
(45.632 -0.0102412 0)
(45.8192 -0.0119644 0)
(46.0273 -0.013989 0)
(46.2588 -0.0163794 0)
(46.5169 -0.0192162 0)
(46.8053 -0.022604 0)
(47.1285 -0.0266795 0)
(47.4922 -0.0316227 0)
(47.9034 -0.0376779 0)
(48.3708 -0.0451779 0)
(48.9061 -0.0545912 0)
(49.5244 -0.0665907 0)
(50.2461 -0.0821747 0)
(51.0997 -0.102879 0)
(52.1262 -0.131171 0)
(53.387 -0.171243 0)
(54.9801 -0.230726 0)
(57.0724 -0.324881 0)
(59.981 -0.488456 0)
(64.4093 -0.817791 0)
(72.3906 -1.68666 0)
(92.7256 -5.89282 0)
(44.1989 2.04811e-07 0)
(44.1982 -3.60856e-08 0)
(44.1977 1.33362e-07 0)
(44.1973 -1.33053e-07 0)
(44.1971 2.00795e-07 0)
(44.1969 -1.49667e-07 0)
(44.1968 2.32903e-07 0)
(44.1966 -1.719e-07 0)
(44.1965 2.15242e-07 0)
(44.1964 -1.89587e-07 0)
(44.1963 1.98523e-07 0)
(44.1962 -1.9498e-07 0)
(44.1961 1.78673e-07 0)
(44.196 -1.94556e-07 0)
(44.1959 1.44531e-07 0)
(44.1959 -1.92258e-07 0)
(44.1958 1.05831e-07 0)
(44.1958 -1.80904e-07 0)
(44.1958 6.91076e-08 0)
(44.1958 -1.6312e-07 0)
(44.1958 3.69835e-08 0)
(44.1958 -1.4389e-07 0)
(44.1958 1.00743e-08 0)
(44.1958 -1.21109e-07 0)
(44.1959 -7.42384e-09 0)
(44.1959 -9.50099e-08 0)
(44.196 -1.32881e-08 0)
(44.196 -7.02696e-08 0)
(44.1961 -2.15737e-08 0)
(44.1962 -8.1097e-08 0)
(44.1962 -9.55599e-08 0)
(44.1963 -2.1822e-07 0)
(44.1964 -3.71627e-07 0)
(44.1965 -6.83026e-07 0)
(44.1966 -1.14688e-06 0)
(44.1968 -1.91227e-06 0)
(44.197 -3.06297e-06 0)
(44.1973 -4.81991e-06 0)
(44.1978 -7.4001e-06 0)
(44.1983 -1.1165e-05 0)
(44.1991 -1.65405e-05 0)
(44.2002 -2.41317e-05 0)
(44.2017 -3.46785e-05 0)
(44.2037 -4.91661e-05 0)
(44.2065 -6.88052e-05 0)
(44.2101 -9.51352e-05 0)
(44.215 -0.00013004 0)
(44.2213 -0.00017585 0)
(44.2294 -0.00023539 0)
(44.2398 -0.000312106 0)
(44.2531 -0.000410159 0)
(44.2698 -0.000534593 0)
(44.2906 -0.000691523 0)
(44.3165 -0.000888393 0)
(44.3484 -0.00113432 0)
(44.3876 -0.00144068 0)
(44.4354 -0.00182144 0)
(44.4935 -0.00229491 0)
(44.5639 -0.00288357 0)
(44.6491 -0.00361843 0)
(44.7522 -0.00453847 0)
(44.8768 -0.00569924 0)
(45.0277 -0.00717462 0)
(45.1752 -0.00876024 0)
(45.3118 -0.010236 0)
(45.4635 -0.0119554 0)
(45.632 -0.0139611 0)
(45.8192 -0.0163102 0)
(46.0272 -0.0190702 0)
(46.2587 -0.0223287 0)
(46.5168 -0.0261958 0)
(46.8052 -0.0308138 0)
(47.1284 -0.0363693 0)
(47.492 -0.0431075 0)
(47.9031 -0.0513615 0)
(48.3705 -0.0615846 0)
(48.9057 -0.0744155 0)
(49.5238 -0.0907709 0)
(50.2453 -0.112011 0)
(51.0986 -0.140228 0)
(52.1245 -0.178782 0)
(53.3844 -0.23338 0)
(54.9758 -0.314408 0)
(57.065 -0.442613 0)
(59.9661 -0.665162 0)
(64.3711 -1.11229 0)
(72.2232 -2.28169 0)
(90.711 -7.59071 0)
(44.1989 2.22331e-07 0)
(44.1982 -6.67976e-08 0)
(44.1977 1.4635e-07 0)
(44.1973 -1.77272e-07 0)
(44.1971 2.42475e-07 0)
(44.1969 -1.98544e-07 0)
(44.1968 2.85936e-07 0)
(44.1966 -2.29828e-07 0)
(44.1965 2.64491e-07 0)
(44.1964 -2.52992e-07 0)
(44.1963 2.44562e-07 0)
(44.1962 -2.59271e-07 0)
(44.1961 2.20353e-07 0)
(44.196 -2.58329e-07 0)
(44.1959 1.78932e-07 0)
(44.1959 -2.53986e-07 0)
(44.1958 1.31507e-07 0)
(44.1958 -2.37523e-07 0)
(44.1958 8.73581e-08 0)
(44.1958 -2.12657e-07 0)
(44.1958 4.88706e-08 0)
(44.1958 -1.85301e-07 0)
(44.1958 1.68371e-08 0)
(44.1958 -1.53422e-07 0)
(44.1959 -2.2104e-09 0)
(44.1959 -1.16425e-07 0)
(44.196 -5.76516e-09 0)
(44.196 -8.081e-08 0)
(44.1961 -1.38771e-08 0)
(44.1962 -9.24819e-08 0)
(44.1962 -1.09527e-07 0)
(44.1963 -2.72288e-07 0)
(44.1964 -4.73043e-07 0)
(44.1965 -8.85261e-07 0)
(44.1966 -1.49759e-06 0)
(44.1968 -2.51058e-06 0)
(44.197 -4.03165e-06 0)
(44.1973 -6.35568e-06 0)
(44.1978 -9.76749e-06 0)
(44.1983 -1.47471e-05 0)
(44.1991 -2.18556e-05 0)
(44.2002 -3.18939e-05 0)
(44.2017 -4.58405e-05 0)
(44.2037 -6.49977e-05 0)
(44.2065 -9.09668e-05 0)
(44.2101 -0.000125784 0)
(44.215 -0.00017194 0)
(44.2213 -0.000232515 0)
(44.2294 -0.000311249 0)
(44.2398 -0.000412695 0)
(44.2531 -0.000542356 0)
(44.2698 -0.000706902 0)
(44.2906 -0.000914418 0)
(44.3165 -0.00117475 0)
(44.3484 -0.00149995 0)
(44.3876 -0.00190506 0)
(44.4354 -0.00240853 0)
(44.4935 -0.00303463 0)
(44.5639 -0.00381299 0)
(44.6491 -0.00478474 0)
(44.7522 -0.00600129 0)
(44.8768 -0.00753621 0)
(45.0277 -0.00948708 0)
(45.1752 -0.0115838 0)
(45.3117 -0.0135351 0)
(45.4634 -0.0158087 0)
(45.6319 -0.018461 0)
(45.8191 -0.0215671 0)
(46.0271 -0.0252165 0)
(46.2586 -0.0295251 0)
(46.5166 -0.0346383 0)
(46.805 -0.0407443 0)
(47.1281 -0.0480897 0)
(47.4917 -0.0569987 0)
(47.9027 -0.0679115 0)
(48.37 -0.0814274 0)
(48.905 -0.0983904 0)
(49.5229 -0.120012 0)
(50.244 -0.148088 0)
(51.0967 -0.185383 0)
(52.1217 -0.236332 0)
(53.3802 -0.308467 0)
(54.969 -0.415481 0)
(57.0529 -0.584691 0)
(59.9419 -0.878034 0)
(64.3098 -1.46544 0)
(71.9704 -2.9822 0)
(88.4399 -9.38269 0)
(44.1989 2.43493e-07 0)
(44.1982 -1.04089e-07 0)
(44.1977 1.62058e-07 0)
(44.1973 -2.31133e-07 0)
(44.1971 2.92864e-07 0)
(44.1969 -2.57758e-07 0)
(44.1968 3.5008e-07 0)
(44.1966 -2.99843e-07 0)
(44.1965 3.23778e-07 0)
(44.1964 -3.29786e-07 0)
(44.1963 2.99975e-07 0)
(44.1962 -3.37245e-07 0)
(44.1961 2.70797e-07 0)
(44.196 -3.35644e-07 0)
(44.1959 2.20577e-07 0)
(44.1959 -3.28657e-07 0)
(44.1958 1.6244e-07 0)
(44.1958 -3.06196e-07 0)
(44.1958 1.09272e-07 0)
(44.1958 -2.72798e-07 0)
(44.1958 6.31601e-08 0)
(44.1958 -2.35489e-07 0)
(44.1958 2.50924e-08 0)
(44.1958 -1.92726e-07 0)
(44.1959 3.96564e-09 0)
(44.1959 -1.42295e-07 0)
(44.196 3.40163e-09 0)
(44.196 -9.32488e-08 0)
(44.1961 -4.57281e-09 0)
(44.1962 -1.06339e-07 0)
(44.1962 -1.26535e-07 0)
(44.1963 -3.37705e-07 0)
(44.1964 -5.95684e-07 0)
(44.1965 -1.13005e-06 0)
(44.1966 -1.92175e-06 0)
(44.1968 -3.2343e-06 0)
(44.197 -5.20355e-06 0)
(44.1973 -8.21369e-06 0)
(44.1978 -1.26314e-05 0)
(44.1983 -1.90806e-05 0)
(44.1991 -2.82853e-05 0)
(44.2002 -4.12839e-05 0)
(44.2017 -5.93431e-05 0)
(44.2037 -8.41493e-05 0)
(44.2065 -0.000117776 0)
(44.2101 -0.000162859 0)
(44.215 -0.000222626 0)
(44.2213 -0.000301064 0)
(44.2294 -0.000403015 0)
(44.2398 -0.000534376 0)
(44.2531 -0.000702274 0)
(44.2698 -0.000915343 0)
(44.2906 -0.00118405 0)
(44.3165 -0.00152116 0)
(44.3484 -0.00194224 0)
(44.3876 -0.00246682 0)
(44.4354 -0.00311872 0)
(44.4935 -0.00392946 0)
(44.5639 -0.00493729 0)
(44.6491 -0.0061956 0)
(44.7521 -0.00777081 0)
(44.8767 -0.00975832 0)
(45.0277 -0.0122844 0)
(45.1751 -0.0149993 0)
(45.3117 -0.0175259 0)
(45.4634 -0.0204698 0)
(45.6318 -0.023904 0)
(45.819 -0.0279258 0)
(46.027 -0.0326509 0)
(46.2584 -0.0382295 0)
(46.5164 -0.0448497 0)
(46.8047 -0.052755 0)
(47.1277 -0.062265 0)
(47.4912 -0.0737987 0)
(47.9021 -0.0879262 0)
(48.3692 -0.105423 0)
(48.9039 -0.12738 0)
(49.5214 -0.155364 0)
(50.2419 -0.191699 0)
(51.0938 -0.239955 0)
(52.1174 -0.305864 0)
(53.3736 -0.399143 0)
(54.9583 -0.537445 0)
(57.034 -0.755902 0)
(59.9039 -1.13384 0)
(64.2146 -1.88679 0)
(71.6035 -3.79638 0)
(85.9131 -11.2167 0)
(44.1989 2.68941e-07 0)
(44.1982 -1.4912e-07 0)
(44.1977 1.80983e-07 0)
(44.1973 -2.96227e-07 0)
(44.1971 3.53887e-07 0)
(44.1969 -3.29428e-07 0)
(44.1968 4.27781e-07 0)
(44.1966 -3.84436e-07 0)
(44.1965 3.95248e-07 0)
(44.1964 -4.22729e-07 0)
(44.1963 3.67246e-07 0)
(44.1962 -4.31667e-07 0)
(44.1961 3.31797e-07 0)
(44.196 -4.29129e-07 0)
(44.1959 2.70934e-07 0)
(44.1959 -4.19031e-07 0)
(44.1958 2.00249e-07 0)
(44.1958 -3.89472e-07 0)
(44.1958 1.35889e-07 0)
(44.1958 -3.45482e-07 0)
(44.1958 8.03923e-08 0)
(44.1958 -2.96041e-07 0)
(44.1958 3.52366e-08 0)
(44.1958 -2.40045e-07 0)
(44.1959 1.1476e-08 0)
(44.1959 -1.73599e-07 0)
(44.196 1.44896e-08 0)
(44.196 -1.08336e-07 0)
(44.1961 6.7005e-09 0)
(44.1962 -1.2315e-07 0)
(44.1962 -1.47063e-07 0)
(44.1963 -4.16863e-07 0)
(44.1964 -7.44074e-07 0)
(44.1965 -1.42619e-06 0)
(44.1966 -2.435e-06 0)
(44.1968 -4.10985e-06 0)
(44.197 -6.62115e-06 0)
(44.1973 -1.04614e-05 0)
(44.1978 -1.6096e-05 0)
(44.1983 -2.43228e-05 0)
(44.1991 -3.60632e-05 0)
(44.2002 -5.2643e-05 0)
(44.2017 -7.56771e-05 0)
(44.2037 -0.000107317 0)
(44.2065 -0.000150206 0)
(44.2101 -0.000207709 0)
(44.215 -0.00028394 0)
(44.2213 -0.000383986 0)
(44.2294 -0.000514022 0)
(44.2398 -0.000681571 0)
(44.2531 -0.000895722 0)
(44.2698 -0.00116749 0)
(44.2906 -0.00151022 0)
(44.3165 -0.00194019 0)
(44.3484 -0.00247726 0)
(44.3876 -0.00314635 0)
(44.4353 -0.00397781 0)
(44.4934 -0.00501189 0)
(44.5639 -0.00629731 0)
(44.6491 -0.00790223 0)
(44.7521 -0.0099113 0)
(44.8767 -0.0124462 0)
(45.0276 -0.015668 0)
(45.175 -0.0191307 0)
(45.3116 -0.0223531 0)
(45.4632 -0.0261077 0)
(45.6317 -0.0304875 0)
(45.8188 -0.0356168 0)
(46.0267 -0.0416428 0)
(46.2581 -0.0487571 0)
(46.516 -0.0571994 0)
(46.8042 -0.0672804 0)
(47.1271 -0.079407 0)
(47.4905 -0.0941136 0)
(47.9011 -0.112126 0)
(48.3679 -0.134433 0)
(48.9022 -0.162423 0)
(49.519 -0.198092 0)
(50.2387 -0.244395 0)
(51.0892 -0.305875 0)
(52.1107 -0.389812 0)
(53.3633 -0.508539 0)
(54.9416 -0.684412 0)
(57.0046 -0.961773 0)
(59.8455 -1.44011 0)
(64.0707 -2.38585 0)
(71.089 -4.72655 0)
(83.1438 -13.022 0)
(44.1989 2.99919e-07 0)
(44.1982 -2.03839e-07 0)
(44.1977 2.03721e-07 0)
(44.1973 -3.75196e-07 0)
(44.1971 4.27746e-07 0)
(44.1969 -4.16141e-07 0)
(44.1968 5.21961e-07 0)
(44.1966 -4.86931e-07 0)
(44.1965 4.81864e-07 0)
(44.1964 -5.35047e-07 0)
(44.1963 4.48614e-07 0)
(44.1962 -5.45574e-07 0)
(44.1961 4.05611e-07 0)
(44.196 -5.42094e-07 0)
(44.1959 3.31788e-07 0)
(44.1959 -5.28263e-07 0)
(44.1958 2.45986e-07 0)
(44.1958 -4.90213e-07 0)
(44.1958 1.68077e-07 0)
(44.1958 -4.33335e-07 0)
(44.1958 1.01387e-07 0)
(44.1958 -3.69255e-07 0)
(44.1958 4.75262e-08 0)
(44.1958 -2.97226e-07 0)
(44.1959 2.04562e-08 0)
(44.1959 -2.11328e-07 0)
(44.196 2.77328e-08 0)
(44.196 -1.26679e-07 0)
(44.1961 2.02254e-08 0)
(44.1962 -1.43613e-07 0)
(44.1962 -1.71967e-07 0)
(44.1963 -5.12603e-07 0)
(44.1964 -9.2369e-07 0)
(44.1965 -1.78455e-06 0)
(44.1966 -3.05611e-06 0)
(44.1968 -5.16913e-06 0)
(44.197 -8.33616e-06 0)
(44.1973 -1.31806e-05 0)
(44.1978 -2.02872e-05 0)
(44.1983 -3.06642e-05 0)
(44.1991 -4.5472e-05 0)
(44.2002 -6.63838e-05 0)
(44.2017 -9.54357e-05 0)
(44.2037 -0.000135341 0)
(44.2065 -0.000189436 0)
(44.2101 -0.000261962 0)
(44.215 -0.000358108 0)
(44.2213 -0.000484292 0)
(44.2294 -0.000648303 0)
(44.2398 -0.000859625 0)
(44.2531 -0.00112973 0)
(44.2698 -0.0014725 0)
(44.2906 -0.00190477 0)
(44.3165 -0.00244707 0)
(44.3484 -0.00312445 0)
(44.3875 -0.00396834 0)
(44.4353 -0.005017 0)
(44.4934 -0.00632122 0)
(44.5638 -0.0079424 0)
(44.649 -0.00996657 0)
(44.752 -0.0125004 0)
(44.8766 -0.0156975 0)
(45.0275 -0.0197606 0)
(45.1749 -0.0241277 0)
(45.3114 -0.0281916 0)
(45.463 -0.0329266 0)
(45.6314 -0.0384499 0)
(45.8185 -0.0449182 0)
(46.0264 -0.0525172 0)
(46.2577 -0.061488 0)
(46.5155 -0.0721332 0)
(46.8035 -0.0848438 0)
(47.1262 -0.100133 0)
(47.4893 -0.118673 0)
(47.8996 -0.141379 0)
(48.3659 -0.169494 0)
(48.8995 -0.204768 0)
(49.5155 -0.249708 0)
(50.2337 -0.30803 0)
(51.0821 -0.385436 0)
(52.1004 -0.491057 0)
(53.3476 -0.640326 0)
(54.9161 -0.861133 0)
(56.96 -1.20852 0)
(59.7571 -1.80481 0)
(63.858 -2.97082 0)
(70.3906 -5.76535 0)
(80.16 -14.7119 0)
(44.1989 3.37429e-07 0)
(44.1982 -2.70063e-07 0)
(44.1977 2.3134e-07 0)
(44.1973 -4.70762e-07 0)
(44.1971 5.17203e-07 0)
(44.1969 -5.21135e-07 0)
(44.1968 6.35832e-07 0)
(44.1966 -6.10828e-07 0)
(44.1965 5.86811e-07 0)
(44.1964 -6.70942e-07 0)
(44.1963 5.47011e-07 0)
(44.1962 -6.83399e-07 0)
(44.1961 4.95105e-07 0)
(44.196 -6.78761e-07 0)
(44.1959 4.05536e-07 0)
(44.1959 -6.60266e-07 0)
(44.1958 3.01268e-07 0)
(44.1958 -6.12042e-07 0)
(44.1958 2.07104e-07 0)
(44.1958 -5.39635e-07 0)
(44.1958 1.26823e-07 0)
(44.1958 -4.57856e-07 0)
(44.1958 6.24169e-08 0)
(44.1958 -3.66536e-07 0)
(44.1959 3.13197e-08 0)
(44.1959 -2.57005e-07 0)
(44.196 4.35851e-08 0)
(44.196 -1.49036e-07 0)
(44.1961 3.64249e-08 0)
(44.1962 -1.68546e-07 0)
(44.1962 -2.02397e-07 0)
(44.1963 -6.28609e-07 0)
(44.1964 -1.14122e-06 0)
(44.1965 -2.2183e-06 0)
(44.1966 -3.80767e-06 0)
(44.1968 -6.45073e-06 0)
(44.197 -1.0411e-05 0)
(44.1973 -1.64701e-05 0)
(44.1978 -2.53573e-05 0)
(44.1983 -3.83353e-05 0)
(44.1991 -5.68535e-05 0)
(44.2002 -8.30052e-05 0)
(44.2017 -0.000119337 0)
(44.2037 -0.000169241 0)
(44.2065 -0.000236889 0)
(44.2101 -0.000327587 0)
(44.215 -0.000447824 0)
(44.2213 -0.000605624 0)
(44.2294 -0.00081073 0)
(44.2398 -0.001075 0)
(44.2531 -0.00141278 0)
(44.2698 -0.00184143 0)
(44.2906 -0.00238202 0)
(44.3165 -0.00306019 0)
(44.3484 -0.00390727 0)
(44.3875 -0.0049626 0)
(44.4353 -0.00627396 0)
(44.4934 -0.00790494 0)
(44.5638 -0.00993222 0)
(44.649 -0.0124635 0)
(44.752 -0.0156319 0)
(44.8765 -0.0196298 0)
(45.0274 -0.0247105 0)
(45.1747 -0.0301711 0)
(45.3112 -0.0352525 0)
(45.4627 -0.0411729 0)
(45.6311 -0.0480787 0)
(45.818 -0.0561657 0)
(46.0258 -0.065666 0)
(46.257 -0.0768808 0)
(46.5146 -0.0901878 0)
(46.8024 -0.106075 0)
(47.1248 -0.125184 0)
(47.4875 -0.148354 0)
(47.8973 -0.176726 0)
(48.3628 -0.211849 0)
(48.8955 -0.255904 0)
(49.51 -0.312015 0)
(50.2262 -0.384802 0)
(51.0715 -0.481347 0)
(52.0848 -0.612969 0)
(53.3237 -0.798739 0)
(54.8777 -1.07297 0)
(56.8929 -1.50286 0)
(59.6259 -2.23566 0)
(63.5515 -3.64643 0)
(69.4732 -6.89149 0)
(77.0063 -16.1899 0)
(44.1989 3.82783e-07 0)
(44.1982 -3.49965e-07 0)
(44.1977 2.64972e-07 0)
(44.1973 -5.86268e-07 0)
(44.1971 6.25474e-07 0)
(44.1969 -6.48223e-07 0)
(44.1968 7.73513e-07 0)
(44.1966 -7.60643e-07 0)
(44.1965 7.13873e-07 0)
(44.1964 -8.35417e-07 0)
(44.1963 6.66081e-07 0)
(44.1962 -8.50124e-07 0)
(44.1961 6.03332e-07 0)
(44.196 -8.4408e-07 0)
(44.1959 4.94825e-07 0)
(44.1959 -8.20039e-07 0)
(44.1958 3.68307e-07 0)
(44.1958 -7.59463e-07 0)
(44.1958 2.54341e-07 0)
(44.1958 -6.68302e-07 0)
(44.1958 1.57639e-07 0)
(44.1958 -5.65064e-07 0)
(44.1958 8.03397e-08 0)
(44.1958 -4.50491e-07 0)
(44.1959 4.44088e-08 0)
(44.1959 -3.12515e-07 0)
(44.196 6.26174e-08 0)
(44.196 -1.76391e-07 0)
(44.1961 5.57477e-08 0)
(44.1962 -1.98913e-07 0)
(44.1962 -2.39542e-07 0)
(44.1963 -7.69285e-07 0)
(44.1964 -1.40472e-06 0)
(44.1965 -2.74339e-06 0)
(44.1966 -4.71726e-06 0)
(44.1968 -8.00149e-06 0)
(44.197 -1.29214e-05 0)
(44.1973 -2.04496e-05 0)
(44.1978 -3.14905e-05 0)
(44.1983 -4.76146e-05 0)
(44.1991 -7.06209e-05 0)
(44.2002 -0.000103111 0)
(44.2017 -0.000148247 0)
(44.2037 -0.000210245 0)
(44.2065 -0.000294288 0)
(44.2101 -0.000406965 0)
(44.215 -0.000556341 0)
(44.2213 -0.000752383 0)
(44.2294 -0.00100719 0)
(44.2398 -0.00133551 0)
(44.2531 -0.00175515 0)
(44.2697 -0.00228768 0)
(44.2906 -0.00295926 0)
(44.3165 -0.00380178 0)
(44.3484 -0.00485411 0)
(44.3875 -0.00616517 0)
(44.4352 -0.00779425 0)
(44.4933 -0.0098204 0)
(44.5637 -0.0123388 0)
(44.6489 -0.0154833 0)
(44.7518 -0.0194192 0)
(44.8763 -0.0243853 0)
(45.0271 -0.0306964 0)
(45.1744 -0.0374791 0)
(45.3108 -0.0437906 0)
(45.4623 -0.0511438 0)
(45.6305 -0.0597206 0)
(45.8174 -0.0697637 0)
(46.025 -0.0815612 0)
(46.2559 -0.0954866 0)
(46.5133 -0.112009 0)
(46.8007 -0.131732 0)
(47.1228 -0.155452 0)
(47.4848 -0.184207 0)
(47.8938 -0.219409 0)
(48.3583 -0.262977 0)
(48.8895 -0.317604 0)
(49.5018 -0.387145 0)
(50.2149 -0.477294 0)
(51.0555 -0.596761 0)
(52.0614 -0.75942 0)
(53.2881 -0.988547 0)
(54.8203 -1.32573 0)
(56.7936 -1.85152 0)
(59.4344 -2.73887 0)
(63.1209 -4.411 0)
(68.3079 -8.066 0)
(73.7427 -17.3611 0)
(44.1989 4.37972e-07 0)
(44.1982 -4.4633e-07 0)
(44.1977 3.05815e-07 0)
(44.1973 -7.25854e-07 0)
(44.1971 7.56516e-07 0)
(44.1969 -8.0181e-07 0)
(44.1968 9.40272e-07 0)
(44.1966 -9.41879e-07 0)
(44.1965 8.67698e-07 0)
(44.1964 -1.03436e-06 0)
(44.1963 8.10351e-07 0)
(44.1962 -1.05185e-06 0)
(44.1961 7.34344e-07 0)
(44.196 -1.04393e-06 0)
(44.1959 6.02947e-07 0)
(44.1959 -1.01329e-06 0)
(44.1958 4.49469e-07 0)
(44.1958 -9.3772e-07 0)
(44.1958 3.11532e-07 0)
(44.1958 -8.23998e-07 0)
(44.1958 1.94999e-07 0)
(44.1958 -6.94873e-07 0)
(44.1958 1.01901e-07 0)
(44.1958 -5.5223e-07 0)
(44.1959 6.01579e-08 0)
(44.1959 -3.79906e-07 0)
(44.196 8.54359e-08 0)
(44.196 -2.09723e-07 0)
(44.1961 7.87191e-08 0)
(44.1962 -2.36126e-07 0)
(44.1962 -2.85003e-07 0)
(44.1963 -9.40039e-07 0)
(44.1964 -1.72419e-06 0)
(44.1965 -3.37923e-06 0)