/*--------------------------------*- C++ -*----------------------------------*\
| =========                 |                                                 |
| \\      /  F ield         | OpenFOAM: The Open Source CFD Toolbox           |
|  \\    /   O peration     | Version:  5.x                                   |
|   \\  /    A nd           | Web:      www.OpenFOAM.org                      |
|    \\/     M anipulation  |                                                 |
\*---------------------------------------------------------------------------*/
FoamFile
{
    version     2.0;
    format      ascii;
    class       volVectorField;
    location    "0";
    object      wallShearStress;
}
// * * * * * * * * * * * * * * * * * * * * * * * * * * * * * * * * * * * * * //

dimensions      [0 2 -2 0 0 0 0];

internalField   uniform (0 0 0);

boundaryField
{
    inlet
    {
        type            calculated;
        value           uniform (0 0 0);
    }
    outlet
    {
        type            calculated;
        value           uniform (0 0 0);
    }
    lowerWallStartup
    {
        type            symmetryPlane;
    }
    upperWallStartup
    {
        type            symmetryPlane;
    }
    upperWall
    {
        type            calculated;
        value           nonuniform List<vector> 
218
(
(-53.6479 2.60337e-07 0)
(-53.6471 2.25115e-07 0)
(-53.6465 1.97609e-07 0)
(-53.6462 1.13714e-07 0)
(-53.6458 1.38635e-07 0)
(-53.6456 1.79901e-08 0)
(-53.6454 1.14498e-07 0)
(-53.6452 -7.52421e-10 0)
(-53.6451 1.10722e-07 0)
(-53.645 -1.54966e-08 0)
(-53.6448 1.18777e-07 0)
(-53.6447 -2.30826e-08 0)
(-53.6446 1.30351e-07 0)
(-53.6445 -3.69879e-08 0)
(-53.6444 1.28189e-07 0)
(-53.6444 -6.75788e-08 0)
(-53.6442 1.4073e-07 0)
(-53.6442 -9.9942e-08 0)
(-53.6442 1.33646e-07 0)
(-53.6442 -1.1546e-07 0)
(-53.6442 1.42679e-07 0)
(-53.6442 -1.29028e-07 0)
(-53.6442 1.51405e-07 0)
(-53.6442 -1.62212e-07 0)
(-53.6444 1.34628e-07 0)
(-53.6444 -1.68965e-07 0)
(-53.6445 1.32597e-07 0)
(-53.6445 -1.70429e-07 0)
(-53.6446 1.26032e-07 0)
(-53.6446 -1.6477e-07 0)
(-53.6447 1.23824e-07 0)
(-53.6447 -1.48579e-07 0)
(-53.6448 1.45778e-07 0)
(-53.6448 -7.49555e-08 0)
(-53.6448 2.91019e-07 0)
(-53.6447 9.77565e-08 0)
(-53.6446 5.5723e-07 0)
(-53.6444 4.63463e-07 0)
(-53.644 1.17166e-06 0)
(-53.6434 1.3135e-06 0)
(-53.6425 2.4057e-06 0)
(-53.6413 3.01678e-06 0)
(-53.6396 4.84389e-06 0)
(-53.6372 6.33552e-06 0)
(-53.634 9.3176e-06 0)
(-53.6297 1.23879e-05 0)
(-53.624 1.72567e-05 0)
(-53.6166 2.27404e-05 0)
(-53.607 3.06302e-05 0)
(-53.5948 3.97309e-05 0)
(-53.5795 5.20503e-05 0)
(-53.5605 6.63316e-05 0)
(-53.5371 8.46352e-05 0)
(-53.5087 0.000105716 0)
(-53.4744 0.000131942 0)
(-53.4336 0.000161418 0)
(-53.3857 0.000197018 0)
(-53.3297 0.000235695 0)
(-53.2655 0.000281001 0)
(-53.1922 0.000329787 0)
(-53.1097 0.000383769 0)
(-53.0177 0.000441304 0)
(-52.9163 0.000500779 0)
(-52.8257 0.000553399 0)
(-52.7498 0.000595829 0)
(-52.6726 0.000637976 0)
(-52.5943 0.000676121 0)
(-52.5155 0.00071503 0)
(-52.4364 0.000751356 0)
(-52.3576 0.000786847 0)
(-52.2793 0.000819072 0)
(-52.2021 0.000849548 0)
(-52.126 0.000881075 0)
(-52.0513 0.000902892 0)
(-51.9783 0.000931617 0)
(-51.9069 0.000950507 0)
(-51.8376 0.000974063 0)
(-51.7703 0.000992544 0)
(-51.7051 0.00100999 0)
(-51.642 0.0010286 0)
(-51.5812 0.00103617 0)
(-51.5228 0.00105404 0)
(-51.4665 0.00106079 0)
(-51.4124 0.00107212 0)
(-51.3605 0.00108417 0)
(-51.3106 0.00109 0)
(-51.263 0.00109812 0)
(-51.2174 0.00110717 0)
(-51.2315 0.00110478 -1.35095e-25)
(-51.3042 0.00111688 0)
(-51.377 0.0011133 1.3621e-25)
(-51.4502 0.00112513 -1.37178e-25)
(-51.5235 0.00111968 0)
(-51.5972 0.00113034 -1.38018e-25)
(-51.6711 0.00112351 0)
(-51.7454 0.00113245 0)
(-51.82 0.00112527 0)
(-51.8948 0.00113309 0)
(-51.97 0.00112612 1.37939e-25)
(-52.0455 0.0011314 0)
(-52.1214 0.00112524 -1.37697e-25)
(-52.1976 0.00112926 0)
(-52.2742 0.00112247 -1.37239e-25)
(-52.3513 0.00112501 1.37183e-25)
(-52.4291 0.00111624 0)
(-52.5072 0.00111876 1.36483e-25)
(-52.5859 0.00110715 0)
(-52.6653 0.00110886 -1.35375e-25)
(-52.7453 0.00109697 0)
(-52.8258 0.00109719 0)
(-52.907 0.00108516 0)
(-52.9888 0.00108551 0)
(-53.0713 0.00107295 0)
(-53.1546 0.00107243 0)
(-53.2385 0.00105844 0)
(-53.3231 0.00105674 1.29091e-25)
(-53.4087 0.00103996 -1.27611e-25)
(-53.4952 0.00103808 1.2696e-25)
(-53.5824 0.00102124 -1.25316e-25)
(-53.6705 0.00101826 0)
(-53.7595 0.00100225 -1.22891e-25)
(-53.8492 0.000998339 0)
(-53.9399 0.00098306 -1.20407e-25)
(-54.0313 0.000978444 0)
(-54.1236 0.000961636 0)
(-54.2171 0.000956843 -1.16762e-25)
(-54.3114 0.000938903 0)
(-54.4068 0.000933552 -1.13966e-25)
(-54.5032 0.000915056 0)
(-54.6007 0.000910427 -1.11177e-25)
(-54.6991 0.000891594 0)
(-54.7986 0.000887319 -1.08491e-25)
(-54.8993 0.000867351 0)
(-55.0008 0.000863138 0)
(-55.1037 0.000841117 -1.03568e-25)
(-55.2078 0.000835967 0)
(-55.313 0.000815654 -1.00435e-25)
(-55.4192 0.000809052 0)
(-55.5266 0.000790434 -9.72753e-26)
(-55.6352 0.000781827 0)
(-55.7448 0.000766035 -9.40817e-26)
(-55.8555 0.000756523 0)
(-55.9672 0.000741061 0)
(-56.0802 0.000731183 -8.93793e-26)
(-56.1945 0.00071581 0)
(-56.3098 0.000707334 -8.63817e-26)
(-56.4264 0.000690529 0)
(-56.5442 0.000683013 -8.35321e-26)
(-56.6634 0.000663964 0)
(-56.7839 0.000657945 0)
(-56.9056 0.000638428 -7.87751e-26)
(-57.0283 0.000632799 -7.77603e-26)
(-57.1526 0.000612657 0)
(-57.2782 0.000607221 -7.46358e-26)
(-57.4048 0.000589495 0)
(-57.5327 0.000582575 -7.15144e-26)
(-57.6619 0.000566192 0)
(-57.7923 0.000559302 -6.85762e-26)
(-57.9239 0.000544152 0)
(-58.0568 0.000537204 -6.57711e-26)
(-58.1908 0.000521494 -6.41773e-26)
(-58.3263 0.000514016 0)
(-58.463 0.000499158 -6.14651e-26)
(-58.6011 0.000492489 0)
(-58.7404 0.000478044 -5.88912e-26)
(-58.881 0.000471712 0)
(-59.0231 0.000456655 0)
(-59.1662 0.000452041 -5.54374e-26)
(-59.3107 0.000435704 5.38687e-26)
(-59.4568 0.000430747 -5.29585e-26)
(-59.604 0.000416493 5.14378e-26)
(-59.7525 0.000411784 0)
(-59.9023 0.000397975 0)
(-60.0536 0.000393236 0)
(-60.206 0.000380349 4.70624e-26)
(-60.3599 0.000376134 0)
(-60.5148 0.000362453 0)
(-60.6714 0.000358826 0)
(-60.8294 0.000344147 0)
(-60.9888 0.000343028 0)
(-61.1493 0.000327231 0)
(-61.3115 0.000324959 0)
(-61.4747 0.000313092 -3.88534e-26)
(-61.6395 0.000306195 3.80057e-26)
(-61.8056 0.000299704 0)
(-61.9127 0.000291433 0)
(-61.9638 0.000282758 -9.34338e-27)
(-62.0226 0.00027774 7.93206e-27)
(-62.0904 0.000268959 1.33733e-26)
(-62.1691 0.000260213 1.12353e-26)
(-62.2602 0.00024898 1.87102e-26)
(-62.3661 0.000238398 1.55845e-26)
(-62.4892 0.000225124 1.28158e-26)
(-62.6325 0.000211918 0)
(-62.7995 0.000197531 1.70568e-26)
(-62.9947 0.000181797 0)
(-63.2227 0.00016625 -2.17997e-26)
(-63.49 0.000149074 0)
(-63.8034 0.000131883 0)
(-64.1716 0.000114598 0)
(-64.6049 9.68665e-05 0)
(-65.1151 8.04825e-05 0)
(-65.7169 6.4532e-05 0)
(-66.4279 5.03884e-05 2.00562e-26)
(-67.2692 3.78629e-05 0)
(-68.2664 2.77118e-05 -1.65214e-26)
(-69.4517 1.93815e-05 1.01386e-26)
(-70.8643 1.36799e-05 -5.93203e-27)
(-72.5557 9.12771e-06 0)
(-74.5929 7.06887e-06 -4.21528e-27)
(-77.0637 5.11752e-06 0)
(-80.0892 5.24817e-06 0)
(-83.8364 4.79441e-06 0)
(-88.5481 6.09135e-06 0)
(-94.5798 7.93727e-06 0)
(-102.48 1.88596e-05 0)
(-113.015 5.0365e-05 1.5074e-25)
(-128.454 -0.000101814 0)
)
;
    }
    lowerWall
    {
        type            calculated;
        value           nonuniform List<vector> 
266
(
(-52.0205 -2.46121e-07 0)
(-52.0197 -1.57788e-07 0)
(-52.0191 -1.70612e-07 0)
(-52.0186 -5.60123e-08 0)
(-52.0184 -1.11647e-07 0)
(-52.0182 -2.16499e-08 0)
(-52.018 -1.04696e-07 0)
(-52.0178 -2.66213e-08 0)
(-52.0177 -8.82666e-08 0)
(-52.0176 -1.54495e-08 0)
(-52.0175 -8.4494e-08 0)
(-52.0173 -1.5127e-08 0)
(-52.0172 -7.88324e-08 0)
(-52.0171 -1.58641e-08 0)
(-52.017 -5.51745e-08 0)
(-52.017 2.31338e-12 0)
(-52.0169 -4.44344e-08 0)
(-52.0169 1.88344e-08 0)
(-52.0169 -1.46364e-08 0)
(-52.0169 2.0952e-08 0)
(-52.0169 -3.39312e-09 0)
(-52.0169 2.32631e-08 0)
(-52.0169 7.15782e-09 0)
(-52.0169 4.81106e-08 0)
(-52.017 3.99142e-08 0)
(-52.017 5.30199e-08 0)
(-52.0171 5.03883e-08 0)
(-52.0171 5.89673e-08 0)
(-52.0172 8.76952e-08 0)
(-52.0173 6.65052e-08 0)
(-52.0173 7.46364e-08 0)
(-52.0175 1.15354e-07 0)
(-52.0176 1.34933e-07 0)
(-52.0177 1.64399e-07 0)
(-52.0178 2.44504e-07 0)
(-52.018 3.48921e-07 0)
(-52.0183 4.94334e-07 0)
(-52.0186 7.6842e-07 0)
(-52.0192 1.08486e-06 0)
(-52.0198 1.55435e-06 0)
(-52.0208 2.30326e-06 0)
(-52.022 3.3112e-06 0)
(-52.0238 4.69741e-06 0)
(-52.0262 6.65464e-06 0)
(-52.0295 9.26142e-06 0)
(-52.0337 1.27806e-05 0)
(-52.0395 1.74559e-05 0)
(-52.0469 2.34853e-05 0)
(-52.0564 3.13818e-05 0)
(-52.0687 4.16331e-05 0)
(-52.0843 5.46884e-05 0)
(-52.104 7.11515e-05 0)
(-52.1284 9.20001e-05 0)
(-52.1589 0.000118167 0)
(-52.1965 0.000150883 0)
(-52.2426 0.000191592 0)
(-52.2989 0.000242217 0)
(-52.3673 0.000305072 0)
(-52.4501 0.000383512 0)
(-52.5505 0.000481213 0)
(-52.6717 0.000603682 0)
(-52.8184 0.000758215 0)
(-52.9961 0.000947872 0)
(-53.1696 0.0011553 0)
(-53.3304 0.00135828 0)
(-53.509 0.0015862 0)
(-53.7073 0.00185226 0)
(-53.9277 0.00216381 0)
(-54.1725 0.00253026 0)
(-54.4451 0.00296305 0)
(-54.7488 0.00347654 0)
(-55.0883 0.00409042 0)
(-55.4688 0.00482886 0)
(-55.8968 0.00572498 0)
(-56.3808 0.0068232 0)
(-56.9312 0.00818392 0)
(-57.5613 0.00989298 0)
(-58.2893 0.0120736 0)
(-59.139 0.0149088 0)
(-60.1441 0.0186818 0)
(-61.3529 0.0238506 0)
(-62.8381 0.0311978 0)
(-64.7152 0.0421636 0)
(-67.182 0.0596844 0)
(-70.6156 0.0906822 0)
(-75.8592 0.156003 0)
(-85.4471 0.368481 0)
(-115.29 0.831605 0)
(-0.07983 -1.79857 0)
(-0.0798114 0.00209424 0)
(-0.0797936 0.0031295 1.4638e-22)
(-0.0797776 0.00446893 -1.1986e-22)
(-0.0797635 0.00616307 0)
(-0.0797513 0.00827278 0)
(-0.0797425 0.0108806 0)
(-0.0797376 0.0140934 0)
(-0.0797381 0.0180369 0)
(-0.0797468 0.0228683 -1.15377e-21)
(-0.0797672 0.0287832 9.44591e-22)
(-0.0798043 0.0360194 -1.54773e-21)
(-0.0798677 0.0448695 1.26709e-21)
(-0.0799706 0.0556985 0)
(-0.0801319 0.0689541 1.70637e-21)
(-0.0803822 0.0851917 -1.3969e-21)
(-0.0807682 0.10511 0)
(-0.0813606 0.129593 0)
(-0.0822714 0.159783 0)
(-0.0836794 0.197186 2.64227e-21)
(-0.0858813 0.243869 -2.16267e-21)
(-0.0893855 0.302799 3.83523e-21)
(-0.0951331 0.378524 -3.1385e-21)
(-0.104499 0.478574 0)
(-0.118686 0.587506 9.03455e-21)
(-0.135865 0.689557 -1.05143e-20)
(-0.156568 0.789485 0)
(-0.181365 0.887766 0)
(-0.210714 0.984585 0)
(-0.245007 1.07986 0)
(-0.284504 1.17329 0)
(-0.329267 1.26435 0)
(-0.379126 1.35235 -9.71547e-20)
(-0.4336 1.43747 -1.56725e-20)
(-0.491192 1.51941 1.49444e-19)
(-0.551736 1.59554 0)
(-0.613936 1.66645 0)
(-0.676785 1.73129 0)
(-0.739324 1.78954 0)
(-0.800732 1.84073 -0)
(-0.860328 1.88442 3.55603e-19)
(-0.917627 1.92013 -4.11863e-19)
(-0.972296 1.94732 0)
(-1.02416 1.96533 0)
(-1.07315 1.97337 0)
(-1.11931 1.97038 -2.41114e-19)
(-1.16269 1.95556 2.77625e-19)
(-0.917758 -12.2995 -0)
(-3.59856 0.0797151 0)
(-10.7343 0.0783463 7.44309e-26)
(-17.6931 0.0758152 0)
(-24.3788 0.0723132 6.86716e-26)
(-30.7153 0.0680973 0)
(-36.6498 0.0634352 0)
(-42.154 0.0585709 0)
(-47.2184 0.0537045 -0)
(-51.8501 0.0489864 0)
(-56.0672 0.0445187 4.22184e-26)
(-59.8957 0.0403635 -0)
(-63.3649 0.0365482 0)
(-66.5059 0.03308 0)
(-69.3496 0.0299489 0)
(-71.9255 0.0271369 0)
(-74.2615 0.0246198 0)
(-76.3831 0.0223698 0)
(-78.3126 0.0203605 0)
(-80.0711 0.0185673 0)
(-81.6766 0.0169645 -0)
(-83.1453 0.015533 -1.47304e-26)
(-84.4919 0.0142512 0)
(-85.729 0.0131026 -1.2428e-26)
(-86.8677 0.0120713 0)
(-87.9184 0.0111436 -1.05707e-26)
(-88.8895 0.0103067 0)
(-89.7893 0.00955037 -9.05956e-27)
(-90.6238 0.00886433 0)
(-91.3997 0.00824312 0)
(-92.1219 0.00767653 -0)
(-92.7955 0.00716249 -6.79651e-27)
(-93.4248 0.00669165 -6.351e-27)
(-94.0133 0.00626241 -5.94449e-27)
(-94.5647 0.00586919 -5.57156e-27)
(-95.0822 0.00550856 -5.22942e-27)
(-95.5683 0.00517621 0)
(-96.026 0.00487141 0)
(-96.4573 0.00458808 -4.35502e-27)
(-96.864 0.0043275 -4.10732e-27)
(-97.2483 0.00408516 -3.87727e-27)
(-97.6114 0.00386119 -3.66476e-27)
(-97.9552 0.0036522 -3.46669e-27)
(-98.2807 0.00345866 -3.28334e-27)
(-98.5892 0.00327762 0)
(-98.8822 0.00311004 -2.95255e-27)
(-99.1605 0.00295192 -2.80293e-27)
(-99.425 0.00280602 -2.66402e-27)
(-99.6769 0.00266735 -2.53295e-27)
(-99.9164 0.00253892 -2.41112e-27)
(-100.145 0.00241711 -2.29565e-27)
(-100.363 0.00230399 0)
(-100.571 0.00219608 -2.08646e-27)
(-100.769 0.00209627 -1.99178e-27)
(-100.959 0.00200097 -1.90175e-27)
(-101.14 0.00191281 -1.81734e-27)
(-101.314 0.00182919 -1.7373e-27)
(-101.48 0.00174957 -1.66168e-27)
(-101.639 0.00167404 0)
(-101.792 0.00160348 -1.5221e-27)
(-101.939 0.00153506 0)
(-102.079 0.00147199 0)
(-102.215 0.00141079 0)
(-102.344 0.00135358 1.28509e-27)
(-102.469 0.00129895 0)
(-102.589 0.00124753 0)
(-102.705 0.00119796 0)
(-102.816 0.00115188 0)
(-102.923 0.00110694 0)
(-103.026 0.00106476 0)
(-103.125 0.00102406 9.72501e-28)
(-103.221 0.000986336 0)
(-103.313 0.000948911 0)
(-103.403 0.000913832 0)
(-103.489 0.000879257 8.35328e-28)
(-103.572 0.000847286 0)
(-103.652 0.000815551 0)
(-103.729 0.000786189 0)
(-103.804 0.000756859 0)
(-103.875 0.000730999 0)
(-103.945 0.000704056 0)
(-104.012 0.000680699 6.50464e-28)
(-104.077 0.000656619 0)
(-104.14 0.000635525 0)
(-104.201 0.000613707 5.87343e-28)
(-104.26 0.000594994 0)
(-104.318 0.000575234 5.49665e-28)
(-104.374 0.000557217 0)
(-104.428 0.000537253 0)
(-104.48 0.000520187 -4.97046e-28)
(-104.531 0.000501449 0)
(-104.581 0.000486383 4.65443e-28)
(-104.628 0.000467408 0)
(-104.675 0.000455714 0)
(-104.72 0.000440861 0)
(-104.764 0.000436452 0)
(-104.808 0.000436417 0)
(-104.853 0.000440835 4.28948e-28)
(-104.547 0.000344196 -0)
(-103.849 0.000333569 0)
(-103.061 0.000327829 3.66223e-26)
(-102.17 0.000321483 6.26182e-26)
(-101.167 0.00031407 -0)
(-100.039 0.000302561 0)
(-98.7744 0.000289199 -0)
(-97.3601 0.000273225 0)
(-95.7838 0.000255696 0)
(-94.0334 0.000236411 -8.11452e-26)
(-92.0975 0.000215741 0)
(-89.9663 0.000194163 -1.01326e-25)
(-87.6323 0.000171947 7.81901e-26)
(-85.0903 0.000149443 0)
(-82.339 0.000127248 0)
(-79.3808 0.000105896 0)
(-76.2237 8.59714e-05 8.94096e-26)
(-72.8804 6.77524e-05 -6.10181e-26)
(-69.3691 5.1653e-05 0)
(-65.7139 3.78912e-05 5.0329e-26)
(-61.9433 2.64695e-05 0)
(-58.0903 1.72704e-05 3.18465e-26)
(-54.1906 1.01827e-05 -0)
(-50.2823 5.01e-06 0)
(-46.4032 1.14068e-06 0)
(-42.5903 -1.49165e-06 0)
(-38.8776 -3.6486e-06 0)
(-35.2956 -5.47936e-06 -6.34928e-26)
(-31.8706 -7.20582e-06 6.70177e-26)
(-28.6227 -1.0101e-05 0)
(-25.5682 -1.15648e-05 -1.54133e-25)
(-22.7211 -6.60922e-06 -0)
(-20.1047 1.31888e-05 0)
)
;
    }
    front
    {
        type            empty;
    }
    back
    {
        type            empty;
    }
}


// ************************************************************************* //
