/*--------------------------------*- C++ -*----------------------------------*\
| =========                 |                                                 |
| \\      /  F ield         | OpenFOAM: The Open Source CFD Toolbox           |
|  \\    /   O peration     | Version:  5.x                                   |
|   \\  /    A nd           | Web:      www.OpenFOAM.org                      |
|    \\/     M anipulation  |                                                 |
\*---------------------------------------------------------------------------*/
FoamFile
{
    version     2.0;
    format      ascii;
    class       volScalarField;
    location    "1000";
    object      k;
}
// * * * * * * * * * * * * * * * * * * * * * * * * * * * * * * * * * * * * * //

dimensions      [0 2 -2 0 0 0 0];

internalField   nonuniform List<scalar> 
60000
(
3.94306e-05
3.00853e-05
2.21131e-05
1.54717e-05
1.07369e-05
8.81747e-06
7.99254e-06
7.42562e-06
7.49022e-06
7.88175e-06
8.07891e-06
7.94069e-06
7.74516e-06
7.58776e-06
7.58382e-06
7.84634e-06
7.96475e-06
7.8596e-06
8.30752e-06
9.39545e-06
1.04101e-05
1.11348e-05
1.12369e-05
1.02644e-05
9.93262e-06
1.0802e-05
1.11418e-05
1.08422e-05
1.10364e-05
1.24324e-05
1.3836e-05
1.41364e-05
1.46743e-05
1.64341e-05
1.89988e-05
2.18593e-05
2.58045e-05
3.22607e-05
4.06512e-05
4.47386e-05
6.56848e-05
5.79845e-05
5.20563e-05
4.25373e-05
2.37954e-05
1.16441e-05
8.58324e-06
8.92263e-06
1.06157e-05
1.25767e-05
1.3677e-05
1.2633e-05
1.08837e-05
1.00414e-05
9.67113e-06
9.60183e-06
1.02533e-05
1.2027e-05
1.38339e-05
1.37381e-05
1.27663e-05
1.23899e-05
1.22106e-05
1.23511e-05
1.3479e-05
1.40574e-05
1.37585e-05
1.29679e-05
1.2177e-05
1.2949e-05
1.57652e-05
1.73143e-05
1.62749e-05
1.56301e-05
1.73344e-05
2.06215e-05
2.44928e-05
3.07353e-05
4.33333e-05
6.01549e-05
7.33355e-05
6.95336e-05
7.7905e-05
9.18611e-05
6.16314e-05
2.22703e-05
9.92334e-06
1.0077e-05
1.29314e-05
1.66118e-05
2.0939e-05
2.25511e-05
1.99525e-05
1.63129e-05
1.35733e-05
1.25011e-05
1.32068e-05
1.52651e-05
1.74071e-05
1.76022e-05
1.63405e-05
1.56236e-05
1.55858e-05
1.53791e-05
1.60443e-05
1.69238e-05
1.68931e-05
1.63231e-05
1.41475e-05
1.24438e-05
1.39999e-05
1.62153e-05
1.47842e-05
1.20252e-05
1.18071e-05
1.37516e-05
1.54963e-05
1.79756e-05
2.85368e-05
5.37172e-05
4.78706e-05
3.93176e-05
3.21271e-05
7.06661e-05
0.000107826
5.70145e-05
1.58522e-05
8.1502e-06
1.04769e-05
1.50611e-05
2.18992e-05
3.03428e-05
3.43823e-05
3.02308e-05
2.25365e-05
1.78026e-05
1.65598e-05
1.75356e-05
1.9749e-05
2.17286e-05
2.19961e-05
2.19136e-05
2.2152e-05
2.1021e-05
1.90278e-05
1.95716e-05
2.14298e-05
2.20701e-05
1.98751e-05
1.55733e-05
1.32777e-05
1.32271e-05
1.23518e-05
9.73808e-06
8.28817e-06
8.75505e-06
9.16789e-06
8.71417e-06
1.11431e-05
2.59197e-05
2.22449e-05
2.21822e-05
4.5811e-06
4.05769e-06
4.94779e-05
8.93396e-05
3.95022e-05
1.06743e-05
6.29544e-06
8.4991e-06
1.3349e-05
2.25228e-05
3.466e-05
3.97001e-05
3.2614e-05
2.37589e-05
1.92833e-05
1.86438e-05
2.05399e-05
2.28847e-05
2.43808e-05
2.55538e-05
2.79179e-05
3.00643e-05
2.44796e-05
1.84439e-05
2.08332e-05
2.78078e-05
2.86026e-05
2.34795e-05
1.80674e-05
1.28193e-05
1.01425e-05
8.97366e-06
8.54718e-06
8.9172e-06
1.14908e-05
1.2579e-05
1.10407e-05
1.1464e-05
9.09033e-06
2.29273e-05
2.01881e-05
3.45705e-05
2.54293e-06
4.64163e-05
7.07541e-05
2.86882e-05
1.08313e-05
8.01512e-06
8.52084e-06
1.22701e-05
2.02215e-05
2.80405e-05
2.96118e-05
2.43916e-05
1.87051e-05
1.66553e-05
1.91479e-05
2.22198e-05
2.29997e-05
2.33199e-05
2.38797e-05
3.11656e-05
3.14026e-05
1.79625e-05
1.37055e-05
2.00753e-05
2.68414e-05
2.53374e-05
2.28069e-05
1.60216e-05
1.13147e-05
1.02113e-05
1.07932e-05
1.31023e-05
1.88213e-05
1.2666e-05
7.77686e-06
1.29014e-05
2.02557e-05
1.85362e-05
4.00543e-05
2.6643e-05
3.10828e-05
5.60452e-06
5.08916e-05
4.63595e-05
2.05967e-05
1.30225e-05
9.69277e-06
9.96668e-06
1.33654e-05
1.91867e-05
2.47035e-05
2.285e-05
1.65455e-05
1.3499e-05
1.4637e-05
1.96324e-05
2.08245e-05
1.99429e-05
1.66373e-05
1.96011e-05
3.41904e-05
2.23968e-05
1.48096e-05
7.64783e-06
9.38464e-06
1.34712e-05
1.75628e-05
1.58361e-05
1.22008e-05
1.11577e-05
1.08832e-05
1.56857e-05
3.11695e-05
2.4708e-05
5.93106e-06
1.38998e-05
2.55234e-05
2.68774e-05
2.96724e-05
2.79558e-05
1.6428e-05
4.85542e-06
1.9299e-05
5.01964e-05
3.12321e-05
1.43102e-05
7.10317e-06
8.93412e-06
1.23525e-05
1.78447e-05
2.28326e-05
2.27286e-05
1.53878e-05
1.14456e-05
1.18651e-05
1.54952e-05
1.82795e-05
1.77135e-05
1.34049e-05
1.04388e-05
2.89638e-05
3.08456e-05
1.50013e-05
5.75586e-06
3.8836e-06
3.67718e-06
7.7995e-06
8.95931e-06
8.1994e-06
1.02421e-05
9.97406e-06
1.34174e-05
2.97223e-05
3.02968e-05
1.02385e-05
1.07729e-05
2.35507e-05
3.4085e-05
1.91436e-05
2.00137e-05
8.61306e-06
2.8583e-05
4.24622e-06
5.92263e-05
7.00499e-05
3.18713e-05
1.15316e-05
5.00994e-06
8.30245e-06
7.985e-06
1.01542e-05
1.2099e-05
9.87383e-06
7.8571e-06
1.0421e-05
1.23087e-05
1.48981e-05
1.69636e-05
1.45313e-05
8.67407e-06
2.22087e-05
2.96882e-05
1.76361e-05
3.85589e-06
2.10192e-05
8.47867e-06
3.77605e-06
5.40118e-06
5.83121e-06
9.72185e-06
1.11173e-05
1.20921e-05
2.18844e-05
2.36759e-05
1.55676e-05
8.49419e-06
7.06179e-06
1.92449e-05
7.21436e-06
2.03932e-05
3.7048e-05
1.34891e-05
5.57093e-05
1.2387e-05
8.17608e-05
8.84229e-05
4.68269e-05
1.49998e-05
1.3285e-05
2.34465e-05
2.33461e-05
8.94065e-06
6.74817e-06
6.96244e-06
9.17731e-06
8.59279e-06
1.13432e-05
1.73906e-05
1.62783e-05
9.96447e-06
1.49215e-05
2.08923e-05
1.93263e-05
9.8606e-06
2.06935e-05
2.32802e-05
2.30328e-05
2.34181e-05
1.71188e-05
1.21725e-05
1.04653e-05
8.53323e-06
1.00337e-05
1.54936e-05
2.29791e-05
1.0892e-05
1.53899e-05
1.79106e-05
2.45431e-05
2.20228e-05
2.16489e-05
2.66703e-05
2.66939e-05
6.5873e-05
6.47586e-06
7.51928e-05
0.000104456
5.6194e-05
1.88484e-05
2.19922e-05
2.82726e-05
1.10158e-05
5.96765e-06
9.0434e-06
8.88718e-06
7.10772e-06
9.65884e-06
1.64568e-05
1.2591e-05
6.25186e-06
7.81823e-06
1.4107e-05
1.97936e-05
1.48997e-05
2.17016e-05
3.21578e-05
2.83564e-05
2.53573e-05
2.51771e-05
1.65876e-05
1.08832e-05
1.01061e-05
7.70491e-06
1.02529e-05
1.77337e-05
2.13082e-05
2.16828e-05
1.23473e-05
2.65476e-05
3.37812e-05
2.22314e-05
1.31715e-05
1.95476e-05
2.89177e-05
1.62553e-05
7.3604e-06
6.63494e-05
8.89971e-05
4.25384e-05
2.23149e-05
2.77049e-05
1.91108e-05
9.18887e-06
9.58454e-06
1.04688e-05
9.61405e-06
1.12958e-05
1.20019e-05
6.37199e-06
6.65037e-06
1.37876e-05
1.54644e-05
1.66859e-05
1.41543e-05
9.15717e-06
7.58449e-06
6.50086e-06
5.11017e-06
5.20537e-06
9.0206e-06
1.29377e-05
1.68925e-05
1.87119e-05
1.64603e-05
9.60231e-06
3.17108e-05
1.75651e-05
1.346e-05
1.97469e-05
2.09398e-05
1.32879e-05
4.93469e-06
8.50112e-06
1.91491e-05
2.28727e-06
1.01558e-05
1.34427e-05
4.62158e-05
3.20149e-05
1.0751e-05
1.62513e-05
1.75249e-05
1.11189e-05
1.45208e-05
2.0163e-05
1.99027e-05
1.81275e-05
1.53596e-05
8.87823e-06
1.49279e-05
2.7328e-05
2.15735e-05
1.52862e-05
1.29503e-05
8.16296e-06
4.03621e-06
4.62205e-06
7.38052e-06
8.074e-06
5.4542e-06
9.21277e-06
1.09932e-05
1.42697e-05
1.05189e-05
5.09513e-06
3.05441e-05
5.84767e-06
1.31018e-05
2.10974e-05
1.90338e-05
1.35427e-05
2.43877e-06
7.2791e-07
6.64915e-06
1.65501e-05
9.88743e-06
9.96383e-06
1.18984e-05
1.13176e-05
2.71426e-06
5.97776e-06
1.0211e-05
8.23305e-06
1.66712e-05
3.55341e-05
3.97106e-05
3.02613e-05
2.11604e-05
5.55893e-06
1.19196e-05
4.77648e-05
3.53361e-05
1.88408e-05
9.99465e-06
1.26723e-05
1.18436e-05
1.28487e-05
9.57018e-06
3.69488e-06
4.76651e-06
6.69046e-06
8.21467e-06
7.03407e-06
1.15594e-05
4.04835e-06
1.0596e-05
1.26422e-05
2.03367e-05
1.93748e-05
1.60226e-05
9.4234e-06
9.99609e-06
4.97668e-06
1.48134e-05
1.49304e-05
7.46679e-06
6.91947e-06
9.00004e-06
8.64675e-06
5.30201e-06
9.73317e-06
8.7423e-06
3.98087e-06
9.71683e-06
1.21074e-05
3.33512e-05
3.79598e-05
2.89897e-05
1.26946e-05
3.5099e-06
2.80243e-05
3.08043e-05
1.28759e-05
8.88346e-06
1.30047e-05
1.27483e-05
1.34559e-05
1.03659e-05
3.01015e-06
9.52238e-06
1.66211e-05
9.54314e-06
1.36795e-05
2.22741e-05
1.15984e-05
7.9674e-06
2.85611e-05
2.22583e-05
1.34837e-05
7.94737e-06
9.53508e-06
2.67518e-06
1.06188e-05
1.37891e-05
1.20817e-05
9.33992e-06
4.95191e-06
6.4926e-06
9.20042e-06
5.00727e-06
5.43128e-06
7.6714e-06
1.00633e-05
1.49518e-05
1.83614e-05
5.39402e-06
1.82335e-05
3.4544e-05
3.13346e-05
1.0199e-05
1.49862e-05
4.46605e-05
4.19158e-05
2.00112e-05
6.45788e-06
9.29466e-06
1.45198e-05
1.45851e-05
1.31015e-05
1.22187e-05
6.88301e-06
5.68137e-06
1.94212e-05
5.00622e-05
5.38976e-05
3.73642e-05
3.24434e-05
1.89861e-05
9.10171e-06
2.49958e-06
5.46082e-06
6.30401e-06
2.83997e-06
1.31954e-05
1.64288e-05
8.26293e-06
2.26521e-06
1.19329e-06
4.19572e-06
6.19896e-06
7.35545e-06
1.34588e-05
2.45203e-05
2.82313e-05
1.40425e-05
5.11696e-06
1.77503e-06
1.62453e-05
3.09012e-05
2.22129e-05
1.68813e-05
1.63447e-05
1.43244e-05
8.66761e-06
7.25961e-06
1.11818e-05
1.3293e-05
8.04956e-06
8.33796e-06
1.59424e-05
1.94825e-05
1.69395e-05
1.55493e-05
2.57425e-05
4.22683e-05
4.37501e-05
1.08962e-05
7.47107e-06
7.66677e-06
7.93956e-06
8.36834e-06
5.67273e-06
4.38278e-06
4.4263e-06
1.23322e-06
3.22977e-06
3.45533e-06
2.38895e-06
1.49213e-06
3.82288e-06
5.16805e-06
6.93362e-06
9.45669e-06
6.54268e-06
9.92842e-06
7.26786e-06
3.98798e-06
1.05033e-05
2.40698e-05
2.32464e-05
1.19965e-05
4.17097e-06
1.77893e-06
3.37621e-06
8.7831e-06
1.22946e-05
6.48102e-06
2.93604e-06
2.84049e-06
8.19421e-06
1.40974e-05
1.24527e-05
8.74323e-06
7.6263e-06
1.15793e-05
1.4372e-05
8.98048e-07
8.97884e-07
1.92343e-06
4.00912e-06
4.87199e-06
3.32624e-06
2.4407e-06
4.3013e-06
3.96519e-06
1.79331e-06
1.14464e-06
1.75806e-06
2.76217e-06
2.89508e-06
4.23848e-06
3.32956e-06
1.14673e-06
7.84827e-06
7.75822e-06
5.42829e-06
3.79689e-06
7.2518e-06
1.67817e-05
2.24905e-05
1.61262e-05
8.34271e-06
5.30198e-06
6.86038e-06
9.8388e-06
7.47562e-06
3.36235e-06
2.42195e-06
2.42561e-06
3.56109e-06
4.30161e-06
2.52036e-06
1.76933e-06
1.63149e-06
1.27095e-06
1.21567e-06
9.61181e-07
8.26439e-07
5.67428e-07
7.22127e-07
6.98494e-07
1.14228e-06
1.58832e-06
2.11377e-06
2.40155e-06
2.29336e-06
2.03459e-06
1.73518e-06
3.21855e-06
3.80827e-06
2.16476e-06
4.91271e-06
8.2441e-06
6.17188e-06
3.3706e-06
3.8705e-06
3.39922e-06
1.78626e-06
6.37686e-06
1.39569e-05
1.37319e-05
9.6404e-06
6.50752e-06
4.29397e-06
3.18377e-06
6.66775e-06
7.69674e-06
5.24877e-06
2.803e-06
1.715e-06
2.03784e-06
2.12542e-06
1.76873e-06
1.27646e-06
1.13093e-06
1.00002e-06
1.60943e-06
6.82545e-07
4.76181e-07
4.75417e-07
4.88295e-07
5.87877e-07
9.35536e-07
1.87584e-06
1.97365e-06
1.86974e-06
3.13731e-06
3.74028e-06
3.18565e-06
2.25907e-06
2.71416e-06
3.12513e-06
4.37468e-06
5.95581e-06
4.73442e-06
3.74064e-06
3.40636e-06
2.9696e-06
3.4712e-06
1.28895e-05
1.61435e-05
1.01353e-05
4.51897e-06
3.19892e-06
6.00774e-06
8.48665e-06
6.57784e-06
2.90315e-06
1.27709e-06
9.19299e-07
9.4492e-07
1.17613e-06
1.60469e-06
1.99163e-06
2.22242e-06
2.26381e-06
2.72017e-06
2.68588e-06
2.29573e-06
1.50029e-06
7.58594e-07
4.88863e-07
1.0474e-06
1.83576e-06
2.29037e-06
2.26943e-06
2.50994e-06
3.14614e-06
4.07354e-06
4.18536e-06
2.63074e-06
2.181e-06
2.91766e-06
3.51031e-06
2.78346e-06
1.86886e-06
1.65746e-06
1.74345e-06
3.07017e-06
7.13074e-06
1.16817e-05
1.22856e-05
1.04812e-05
8.86236e-06
8.50921e-06
8.86585e-06
9.77297e-06
1.06115e-05
1.03475e-05
8.64559e-06
6.35549e-06
4.50485e-06
3.56857e-06
3.3054e-06
3.31018e-06
3.08433e-06
6.28927e-07
1.66102e-06
2.42561e-06
2.84633e-06
2.74164e-06
2.28855e-06
2.08826e-06
2.64609e-06
3.10843e-06
2.41576e-06
1.61599e-06
1.63421e-06
1.68592e-06
1.87283e-06
2.8947e-06
2.96936e-06
1.97616e-06
1.93938e-06
2.07336e-06
1.57841e-06
1.20663e-06
1.2452e-06
1.2629e-06
1.99994e-06
3.06389e-06
4.46444e-06
5.87783e-06
6.56755e-06
6.69048e-06
7.05134e-06
7.5713e-06
7.86045e-06
7.81215e-06
7.12245e-06
5.50256e-06
3.69016e-06
2.59565e-06
2.01677e-06
1.05344e-06
4.47127e-07
4.84303e-07
5.82878e-07
7.70595e-07
1.51223e-06
2.45669e-06
2.76925e-06
2.12673e-06
7.94827e-07
1.31214e-06
1.67324e-06
1.14517e-06
8.87213e-07
1.65147e-06
1.97835e-06
1.33579e-06
8.63851e-07
1.53835e-06
1.24092e-06
5.43634e-07
4.23268e-07
4.70435e-07
4.10075e-07
5.29578e-07
8.37936e-07
1.16939e-06
1.6105e-06
2.08258e-06
2.23441e-06
1.93244e-06
1.41672e-06
1.0435e-06
9.31272e-07
8.10629e-07
6.38734e-07
6.25157e-07
7.99401e-07
1.10815e-06
1.17564e-06
3.71398e-07
4.14207e-08
6.37346e-07
6.3036e-07
7.6922e-07
8.4058e-07
1.00172e-06
1.35672e-06
1.55869e-06
8.63276e-07
3.59819e-07
8.28481e-07
1.17914e-06
1.27626e-06
1.53849e-06
2.2724e-06
2.82443e-06
2.56494e-06
1.91449e-06
1.14337e-06
5.23882e-07
3.01392e-07
2.9903e-07
3.17016e-07
2.19619e-07
1.9421e-07
4.19555e-07
7.05438e-07
8.6961e-07
8.4951e-07
6.86552e-07
6.82893e-07
9.62581e-07
1.27694e-06
1.18054e-06
6.35537e-07
1.45381e-07
3.12234e-07
1.0708e-06
1.54213e-06
1.37287e-06
9.14321e-07
0.000127639
8.32069e-05
4.84476e-05
2.95271e-05
2.06768e-05
1.68762e-05
1.51541e-05
1.49663e-05
1.79105e-05
2.44963e-05
3.24325e-05
3.82105e-05
4.15073e-05
4.13629e-05
3.87576e-05
3.80928e-05
3.97683e-05
4.27429e-05
4.6255e-05
4.66468e-05
4.69936e-05
4.84938e-05
4.53565e-05
3.84444e-05
3.47193e-05
3.50549e-05
3.54402e-05
3.56917e-05
3.98617e-05
4.92016e-05
5.54174e-05
5.18342e-05
4.77029e-05
5.10274e-05
5.91727e-05
6.44102e-05
6.70168e-05
7.84122e-05
0.000112275
0.000143479
0.00015775
0.000120931
7.77478e-05
5.32873e-05
3.56175e-05
2.26745e-05
1.80748e-05
1.84968e-05
2.13658e-05
2.78241e-05
3.7696e-05
4.78605e-05
5.54123e-05
5.32301e-05
4.23249e-05
3.5197e-05
3.58417e-05
4.36684e-05
5.4305e-05
5.51268e-05
5.03551e-05
5.05435e-05
4.75063e-05
3.71226e-05
3.13646e-05
3.22e-05
3.22899e-05
3.0899e-05
3.37411e-05
4.37925e-05
5.37596e-05
5.3253e-05
4.68881e-05
4.43592e-05
5.00201e-05
5.74403e-05
5.6262e-05
4.85022e-05
6.0496e-05
0.000119304
0.00010081
0.000116744
8.20081e-05
7.1717e-05
6.32065e-05
4.00945e-05
2.53931e-05
2.40501e-05
2.60792e-05
2.91282e-05
3.93418e-05
5.70642e-05
7.32052e-05
6.97063e-05
4.70681e-05
3.08115e-05
2.69574e-05
3.04689e-05
3.99739e-05
4.70426e-05
4.44785e-05
4.16687e-05
4.09013e-05
3.27595e-05
2.37428e-05
2.13223e-05
2.08242e-05
1.92289e-05
2.00245e-05
2.74242e-05
3.71822e-05
3.90659e-05
3.17236e-05
2.28917e-05
2.32928e-05
3.25805e-05
3.68134e-05
2.19672e-05
9.78972e-06
2.79942e-05
1.49635e-05
5.61336e-05
4.42031e-05
3.91879e-05
6.34418e-05
6.63373e-05
3.76806e-05
2.50717e-05
2.60187e-05
2.69567e-05
2.87716e-05
4.22521e-05
6.49333e-05
7.39681e-05
5.32638e-05
2.77057e-05
1.72487e-05
1.51857e-05
1.89203e-05
2.73869e-05
3.29945e-05
3.07331e-05
2.82389e-05
2.50385e-05
1.80286e-05
1.35918e-05
1.12992e-05
8.56584e-06
8.10586e-06
1.37876e-05
2.14222e-05
2.05855e-05
1.28814e-05
7.07293e-06
6.20389e-06
8.60544e-06
1.10448e-05
7.55541e-06
2.33705e-06
6.21104e-06
1.17005e-05
1.07032e-05
2.30659e-05
1.09383e-05
1.8339e-05
5.00688e-05
5.4413e-05
2.7669e-05
2.18693e-05
2.38996e-05
2.04125e-05
1.71356e-05
2.28669e-05
3.41683e-05
3.85078e-05
2.53582e-05
1.37897e-05
1.06647e-05
1.29235e-05
1.67567e-05
2.21877e-05
2.39185e-05
1.90118e-05
1.52938e-05
1.34475e-05
1.16637e-05
9.8391e-06
6.7876e-06
5.12139e-06
9.65844e-06
1.39713e-05
1.10458e-05
7.70013e-06
7.88389e-06
6.38511e-06
3.81508e-06
3.19558e-06
7.48929e-06
1.44445e-05
2.09376e-05
2.50585e-05
2.75318e-06
1.5716e-05
8.09214e-06
3.14201e-06
9.69701e-06
3.48492e-05
3.45089e-05
1.66689e-05
1.48193e-05
1.37181e-05
7.54729e-06
1.56062e-06
1.3388e-06
4.85523e-06
1.19594e-05
1.14271e-05
1.07496e-05
1.3493e-05
1.70615e-05
1.77285e-05
1.84769e-05
1.4031e-05
7.38253e-06
6.1097e-06
7.61078e-06
8.38706e-06
8.26867e-06
6.52799e-06
8.29212e-06
7.8856e-06
6.55502e-06
1.00792e-05
1.62522e-05
1.38504e-05
8.82727e-06
1.90045e-05
1.68123e-05
1.00958e-05
8.52596e-06
1.28935e-05
1.52779e-05
5.68653e-06
1.36189e-05
4.37459e-06
6.5712e-06
5.63118e-06
1.99678e-05
2.47369e-05
1.34529e-05
6.39112e-06
8.34423e-06
1.02969e-05
2.05586e-05
1.90612e-05
3.97958e-06
7.38951e-06
1.06007e-05
1.14072e-05
1.31199e-05
1.51433e-05
1.4358e-05
1.20962e-05
5.40646e-06
2.06431e-06
3.24485e-06
4.74814e-06
5.3383e-06
7.42393e-06
1.02421e-05
9.65814e-06
4.30864e-06
1.10277e-05
2.37619e-05
1.81934e-05
1.25652e-05
1.5596e-05
1.08386e-05
5.7005e-06
6.79348e-06
1.51725e-05
1.90665e-05
9.79043e-06
2.09699e-05
5.16547e-06
7.26992e-06
4.47594e-06
9.67128e-06
2.66568e-05
2.22395e-05
7.26669e-06
1.93373e-05
1.77933e-05
1.03716e-05
8.06659e-06
6.3545e-06
5.34408e-06
6.27752e-06
9.5797e-06
1.12741e-05
1.43627e-05
1.34246e-05
1.23429e-05
6.68054e-06
1.98807e-06
1.91601e-06
2.46536e-06
2.47641e-06
6.16982e-06
1.01593e-05
1.12059e-05
4.9037e-06
9.09828e-06
1.57663e-05
1.32624e-05
1.55323e-05
1.1676e-05
8.18129e-06
7.02303e-06
8.1295e-06
1.60367e-05
1.81336e-05
1.9759e-05
2.3107e-05
8.7809e-06
4.08797e-06
1.29008e-05
1.32355e-05
2.64151e-05
2.78916e-05
1.60408e-05
1.63858e-05
8.37872e-06
1.18314e-06
4.97091e-06
7.6416e-06
6.70248e-06
5.34504e-06
7.67355e-06
1.48468e-05
1.90627e-05
1.74925e-05
1.3388e-05
7.16948e-06
2.30584e-06
2.16652e-06
1.86242e-06
2.17977e-06
7.77081e-06
1.30959e-05
1.17824e-05
6.22141e-06
8.05897e-06
6.89855e-06
1.26568e-05
1.66719e-05
1.27517e-05
8.15322e-06
6.94892e-06
1.1245e-05
2.12457e-05
1.52399e-05
2.2635e-05
1.06341e-05
8.00768e-06
9.94507e-06
2.08107e-05
1.58696e-05
1.60133e-05
2.98941e-05
2.36789e-05
1.39113e-05
5.77781e-06
5.20018e-06
7.18463e-06
6.18303e-06
4.34788e-06
5.11857e-06
8.20703e-06
1.35087e-05
1.76494e-05
1.73464e-05
1.39018e-05
6.87388e-06
2.73702e-06
3.73684e-06
4.44671e-06
3.46475e-06
9.77211e-06
1.66205e-05
1.50625e-05
8.76295e-06
5.47454e-06
1.34683e-06
1.13957e-05
2.01751e-05
1.70636e-05
8.5231e-06
7.07492e-06
1.37851e-05
2.24534e-05
2.4018e-05
1.82303e-05
4.43637e-06
1.48627e-05
2.08114e-05
1.63125e-05
1.93841e-05
7.30459e-06
1.20085e-05
2.76351e-05
1.84977e-05
9.34515e-06
1.0258e-05
1.48517e-05
1.13727e-05
6.07928e-06
5.04929e-06
1.06484e-05
1.56398e-05
1.64073e-05
1.44553e-05
1.2063e-05
6.67372e-06
3.44453e-06
3.86016e-06
6.0115e-06
5.57854e-06
4.00306e-06
4.28183e-06
5.87375e-06
4.05384e-06
2.6576e-06
1.16226e-06
5.20345e-06
1.7474e-05
1.74225e-05
1.04416e-05
8.43007e-06
1.37307e-05
2.22265e-05
3.85918e-05
2.01866e-05
6.20374e-06
8.75598e-06
1.20877e-05
1.03799e-05
4.32201e-06
1.67413e-05
1.93188e-05
1.15816e-05
1.36795e-05
5.9033e-06
5.80547e-06
9.99205e-06
1.17415e-05
9.58914e-06
8.42893e-06
1.2447e-05
2.02213e-05
2.22459e-05
1.55305e-05
1.06461e-05
6.96567e-06
4.45752e-06
4.06096e-06
6.38017e-06
6.83852e-06
4.34044e-06
7.541e-06
2.71617e-06
3.57364e-06
1.02326e-05
2.72049e-06
3.65568e-06
7.25729e-06
1.01245e-05
1.20912e-05
1.43169e-05
1.19187e-05
1.91781e-05
1.98602e-05
1.41902e-05
1.48907e-05
1.18385e-05
4.52375e-06
2.04734e-06
4.02652e-06
6.80934e-06
1.98697e-05
1.85427e-05
9.45141e-06
3.01724e-06
3.67101e-06
4.60004e-06
4.41459e-06
6.69978e-06
1.43271e-05
2.11027e-05
2.58959e-05
3.09764e-05
2.65491e-05
1.45154e-05
6.81943e-06
3.4632e-06
5.75373e-06
5.38941e-06
2.68667e-06
1.26569e-05
1.16812e-05
8.53059e-06
5.45255e-06
6.13592e-06
5.87439e-06
6.01088e-06
7.47697e-06
6.35226e-06
1.33825e-05
2.1938e-05
1.93138e-05
2.96517e-05
2.21623e-05
2.25523e-05
1.32417e-05
2.485e-06
2.52504e-06
1.09094e-05
1.39431e-05
4.94172e-06
2.50671e-06
6.6434e-06
1.08521e-05
4.66117e-06
3.92778e-06
6.26282e-06
4.99956e-06
4.95118e-06
6.60514e-06
1.12654e-05
1.37563e-05
1.48162e-05
2.30483e-05
2.40786e-05
1.06602e-05
4.82824e-06
9.10305e-06
9.17525e-06
6.36849e-06
3.51669e-06
1.31769e-06
3.73281e-06
1.30014e-05
1.15573e-05
7.40304e-06
4.65993e-06
7.74127e-06
8.58762e-06
1.58418e-05
2.35054e-05
3.21601e-05
3.60767e-05
3.03077e-05
1.56075e-05
5.1694e-06
5.30619e-06
6.88752e-06
6.51919e-06
3.55689e-06
4.30819e-06
5.72711e-06
5.43356e-06
6.37419e-06
3.98116e-06
1.60372e-06
3.94879e-06
4.84913e-06
8.74204e-06
6.39891e-06
9.83939e-07
1.99684e-06
5.25162e-06
6.72246e-06
2.20857e-05
2.33951e-05
1.94184e-05
2.17427e-05
2.03474e-05
1.62561e-05
1.00919e-05
4.91245e-06
4.89594e-06
1.34849e-05
1.12021e-05
4.13535e-06
5.51416e-06
1.31917e-05
1.55703e-05
2.23048e-05
2.96659e-05
3.34756e-05
3.20056e-05
2.33181e-05
1.05069e-05
4.0579e-06
4.06894e-06
6.81373e-06
9.0239e-06
1.00225e-05
6.8817e-06
5.80983e-06
8.27892e-06
8.56157e-06
5.14568e-06
2.32527e-06
2.9159e-06
6.42755e-06
1.25278e-05
9.94218e-06
2.00132e-06
3.69768e-06
5.09382e-06
4.49076e-06
1.60177e-05
2.42452e-05
2.10984e-05
1.58819e-05
9.43781e-06
1.02987e-05
6.85315e-06
4.62026e-06
8.31741e-06
1.29636e-05
1.91484e-06
1.9133e-06
1.04092e-05
1.22489e-05
1.5845e-05
2.1998e-05
3.00109e-05
3.50787e-05
1.39231e-05
8.24482e-06
6.08298e-06
3.81443e-06
3.63864e-06
1.61295e-06
3.05491e-06
9.89355e-06
1.22256e-05
7.4888e-06
4.03362e-06
3.04965e-06
4.96915e-06
6.35215e-06
7.4786e-06
9.2856e-06
7.09325e-06
3.72157e-06
3.05224e-06
3.13393e-06
5.92259e-06
6.15008e-06
1.25543e-05
1.92216e-05
1.39287e-05
9.57497e-06
1.11267e-05
5.86213e-06
5.14295e-06
6.81529e-06
6.30011e-06
8.86401e-06
5.11562e-06
3.52457e-06
9.38069e-06
8.52543e-06
4.86241e-06
8.32163e-06
1.44744e-05
1.81014e-05
4.90838e-06
1.61295e-06
3.86519e-06
5.62839e-06
4.13898e-06
2.53825e-06
3.58583e-06
4.30295e-06
5.17259e-06
7.55292e-06
5.31055e-06
1.52648e-06
1.87255e-06
5.85336e-06
7.54835e-06
5.28701e-06
3.64748e-06
3.75672e-06
4.06697e-06
3.93419e-06
4.91123e-06
4.29501e-06
4.99724e-06
1.45772e-05
1.14023e-05
5.17799e-06
3.73923e-06
6.97594e-06
1.01264e-05
8.49026e-06
5.22352e-06
3.89121e-06
3.28548e-06
3.25649e-06
3.80427e-06
5.14296e-06
4.05752e-06
1.26086e-06
3.60718e-06
6.35454e-06
2.76588e-06
3.34127e-06
2.22374e-06
2.76952e-06
5.79857e-06
6.04066e-06
3.71909e-06
3.54923e-06
3.86068e-06
1.6593e-06
3.65025e-06
2.96289e-06
1.87479e-06
2.90679e-06
4.64744e-06
4.85649e-06
2.81529e-06
1.56607e-06
1.39878e-06
2.40548e-06
4.32592e-06
5.05132e-06
1.735e-06
6.47167e-06
9.6552e-06
7.2984e-06
6.21526e-06
6.53326e-06
4.46149e-06
1.94577e-06
3.4866e-06
2.67484e-06
1.04995e-06
1.50648e-06
1.80402e-06
1.75139e-06
2.02944e-06
1.94142e-06
2.26432e-06
1.92111e-06
1.48066e-06
8.14412e-07
1.79106e-06
1.99349e-06
1.36429e-06
2.81421e-06
4.41855e-06
4.30024e-06
3.57346e-06
2.64265e-06
2.92438e-06
4.03656e-06
2.9393e-06
2.63182e-06
3.47051e-06
4.02849e-06
5.22527e-06
5.12839e-06
2.96626e-06
1.16086e-06
1.17972e-06
3.06552e-06
4.03499e-06
3.91336e-06
4.82214e-06
4.81904e-06
4.04104e-06
3.58283e-06
5.02644e-06
8.26936e-06
5.67264e-06
2.43405e-06
7.81135e-07
7.59481e-07
1.05702e-06
1.2132e-06
1.57426e-06
1.93524e-06
2.04823e-06
2.03654e-06
1.44745e-06
9.12247e-07
1.66238e-06
2.51564e-06
2.1872e-06
1.12156e-06
1.27491e-06
3.32325e-06
5.11341e-06
5.11021e-06
4.73483e-06
5.60175e-06
5.7721e-06
2.97846e-06
2.29619e-06
3.84988e-06
3.71415e-06
3.61615e-06
4.50335e-06
2.51776e-06
6.1213e-07
2.86054e-06
4.44658e-06
4.69135e-06
5.76693e-06
6.99129e-06
6.71778e-06
5.90785e-06
5.46674e-06
4.7422e-06
3.28831e-06
2.2752e-06
1.97137e-06
1.84356e-06
1.77512e-06
1.84058e-06
1.92033e-06
2.04765e-06
2.26943e-06
2.13825e-06
1.65437e-06
1.2181e-06
1.37966e-06
2.37661e-06
2.80878e-06
2.37109e-06
2.10554e-06
2.02435e-06
2.06947e-06
3.25645e-06
3.71459e-06
3.45058e-06
4.23132e-06
5.35501e-06
3.93915e-06
1.45463e-06
1.45619e-06
1.43225e-06
1.19592e-06
1.8093e-06
1.22202e-06
4.54825e-07
5.64489e-07
8.90809e-07
3.53597e-06
6.62678e-06
8.55837e-06
1.02571e-05
1.28891e-05
1.50896e-05
1.50413e-05
1.28372e-05
9.85028e-06
7.15318e-06
5.05886e-06
3.68003e-06
2.92668e-06
2.44475e-06
2.11942e-06
1.9021e-06
1.1944e-06
1.02807e-06
8.80358e-07
1.34028e-06
2.11034e-06
2.58979e-06
2.58593e-06
2.37097e-06
1.94405e-06
7.34136e-07
4.9666e-07
6.14243e-07
7.15544e-07
1.3303e-06
2.16639e-06
2.21513e-06
1.49191e-06
1.0518e-06
1.05922e-06
1.32234e-06
1.36804e-06
7.16636e-07
2.7001e-07
2.03963e-07
5.59229e-07
1.53975e-06
2.88292e-06
3.88614e-06
4.22436e-06
4.32964e-06
4.44759e-06
4.15625e-06
3.19476e-06
2.03718e-06
1.45367e-06
1.29544e-06
9.8768e-07
6.58029e-07
8.38984e-07
1.14856e-06
7.73772e-07
1.03753e-06
9.54351e-07
8.50099e-07
8.28443e-07
8.33265e-07
9.30719e-07
1.28796e-06
1.3027e-06
7.72443e-07
6.10247e-07
7.90927e-07
1.18553e-06
1.36845e-06
1.34073e-06
1.53768e-06
2.08577e-06
1.87382e-06
9.16145e-07
1.37925e-07
1.94375e-07
3.78498e-07
4.08664e-07
4.08407e-07
4.51862e-07
4.94508e-07
5.36286e-07
6.29347e-07
8.61304e-07
9.39178e-07
6.77356e-07
3.24357e-07
1.23743e-07
1.49247e-07
3.41055e-07
5.12751e-07
5.61724e-07
3.61288e-07
3.23273e-08
1.79727e-07
8.36264e-07
6.61292e-07
5.45809e-07
4.84465e-07
5.86626e-07
7.69952e-07
8.06831e-07
5.15735e-07
7.82729e-07
1.11128e-06
1.23626e-06
1.43413e-06
2.05603e-06
2.80751e-06
2.90744e-06
2.17152e-06
1.3407e-06
9.7327e-07
8.08777e-07
4.6312e-07
2.44764e-07
2.81092e-07
3.09223e-07
3.52374e-07
3.96197e-07
3.87546e-07
3.48607e-07
3.32993e-07
4.15141e-07
6.83955e-07
8.66927e-07
7.50562e-07
4.23206e-07
5.84104e-07
9.82406e-07
1.34248e-06
1.56106e-06
1.46907e-06
1.19274e-06
9.64529e-07
7.77317e-05
6.21076e-05
4.57644e-05
3.51377e-05
2.93413e-05
2.78178e-05
2.83069e-05
2.56968e-05
2.0226e-05
1.68383e-05
1.69235e-05
1.78685e-05
1.85772e-05
1.95466e-05
2.18451e-05
2.54739e-05
2.94363e-05
3.41416e-05
4.10618e-05
5.18965e-05
6.22497e-05
6.23474e-05
5.58714e-05
4.97756e-05
4.36227e-05
3.96678e-05
4.065e-05
4.47668e-05
4.90418e-05
5.43529e-05
6.21291e-05
6.85165e-05
6.95353e-05
7.02911e-05
7.4404e-05
7.97101e-05
8.47636e-05
8.6493e-05
8.54221e-05
8.45455e-05
8.17357e-05
7.16002e-05
5.49459e-05
4.29543e-05
3.62017e-05
3.36673e-05
4.04272e-05
5.12231e-05
4.33664e-05
2.59469e-05
1.93426e-05
1.89342e-05
1.89071e-05
1.86825e-05
1.90854e-05
2.0597e-05
2.40752e-05
3.09822e-05
4.07562e-05
5.18925e-05
6.28674e-05
6.61327e-05
6.19039e-05
5.61552e-05
4.80879e-05
4.04684e-05
3.81904e-05
3.99909e-05
4.23106e-05
4.43779e-05
5.08425e-05
6.23654e-05
6.4829e-05
5.85659e-05
5.99561e-05
7.03746e-05
8.38972e-05
9.19546e-05
8.88425e-05
8.41209e-05
5.48755e-05
5.3307e-05
4.67532e-05
4.08283e-05
3.73374e-05
3.34348e-05
3.96111e-05
5.87589e-05
6.976e-05
4.58052e-05
2.51738e-05
1.84652e-05
1.76478e-05
1.66616e-05
1.50454e-05
1.46267e-05
1.51952e-05
1.749e-05
2.37136e-05
3.2578e-05
4.13304e-05
4.56533e-05
4.6076e-05
4.51408e-05
4.06236e-05
3.38804e-05
2.86258e-05
2.56579e-05
2.54768e-05
2.59195e-05
2.61348e-05
3.36855e-05
4.24046e-05
3.47546e-05
2.63404e-05
2.84152e-05
3.79541e-05
5.08571e-05
5.85544e-05
5.74125e-05
2.02811e-05
2.18858e-05
2.26132e-05
2.30168e-05
2.81033e-05
2.69764e-05
2.719e-05
3.79646e-05
5.41845e-05
6.41356e-05
4.73904e-05
2.7404e-05
1.90342e-05
1.59836e-05
1.23263e-05
1.04323e-05
1.01382e-05
9.48981e-06
1.13215e-05
1.57793e-05
1.91849e-05
1.93941e-05
1.72547e-05
1.5654e-05
1.54455e-05
1.6203e-05
1.55201e-05
1.12779e-05
8.59238e-06
1.03489e-05
1.08904e-05
9.86889e-06
1.41954e-05
1.4979e-05
8.1609e-06
4.76054e-06
4.73513e-06
6.58692e-06
1.10038e-05
1.69491e-05
5.38433e-06
8.0143e-06
7.55568e-06
8.12333e-06
1.71212e-05
2.1445e-05
1.26339e-05
1.50743e-05
1.88541e-05
2.836e-05
5.44469e-05
5.25909e-05
3.34722e-05
2.30276e-05
1.3828e-05
9.64809e-06
1.19113e-05
1.42976e-05
1.19777e-05
1.1605e-05
1.13855e-05
8.77755e-06
4.87837e-06
2.02692e-06
1.44054e-06
2.776e-06
4.95304e-06
4.78979e-06
2.59874e-06
2.84344e-06
5.23645e-06
2.94138e-06
1.93643e-06
4.60903e-06
6.97197e-06
3.05281e-06
1.0967e-06
8.93746e-07
4.15271e-06
1.92633e-06
4.53537e-06
1.15257e-05
5.51476e-06
2.03936e-06
8.35335e-06
1.91132e-05
8.59309e-06
1.43579e-06
1.88364e-05
1.50527e-05
1.44186e-05
4.15274e-05
4.34683e-05
3.15148e-05
1.88746e-05
1.07975e-05
1.47533e-05
2.47226e-05
2.05702e-05
1.23958e-05
1.01813e-05
7.34162e-06
4.04193e-06
1.67728e-06
1.17395e-06
1.354e-06
1.27175e-06
2.00685e-06
2.34212e-06
1.54945e-06
2.13316e-06
3.22052e-06
3.29288e-06
1.74144e-06
1.00703e-05
1.15436e-05
4.46976e-06
2.81147e-06
6.91387e-06
1.17692e-05
5.89386e-06
1.61136e-05
1.47183e-05
3.2563e-06
3.90367e-06
9.95304e-06
1.25055e-05
4.37428e-06
4.25907e-06
3.12704e-05
2.21925e-05
7.48024e-06
1.77125e-05
1.89199e-05
1.47457e-05
1.15461e-05
1.45183e-05
2.05173e-05
1.82239e-05
9.75964e-06
8.00485e-06
9.47096e-06
8.89731e-06
4.02395e-06
1.44478e-06
2.84706e-06
2.96217e-06
2.30206e-06
2.87489e-06
2.65384e-06
6.98669e-06
6.03406e-06
4.42522e-06
1.71473e-06
6.42112e-06
1.57279e-05
9.48362e-06
4.0765e-06
4.44199e-06
8.47733e-06
4.75333e-06
7.11824e-06
1.85137e-05
1.17442e-05
8.19786e-06
3.16217e-06
5.91825e-06
1.64517e-05
1.38614e-05
9.54248e-06
2.09064e-05
1.06238e-05
2.54941e-06
5.7642e-06
5.88313e-06
7.73756e-06
9.72623e-06
1.09474e-05
9.45443e-06
5.90711e-06
5.93483e-06
1.05128e-05
1.11066e-05
4.95695e-06
2.79415e-06
4.09267e-06
4.45195e-06
4.48037e-06
3.54362e-06
2.03548e-06
3.78041e-06
5.41661e-06
4.99615e-06
2.48092e-06
4.7667e-06
6.78598e-06
1.38823e-05
5.5096e-06
3.55581e-06
5.85634e-06
7.31046e-06
6.59238e-06
1.03916e-05
1.58212e-05
6.23733e-06
1.04406e-05
4.09448e-06
1.40766e-05
2.95216e-05
1.60729e-05
3.61562e-06
1.32267e-05
3.74063e-06
4.83943e-06
1.01485e-05
8.00536e-06
3.44493e-06
3.2818e-06
4.99899e-06
4.6005e-06
4.45122e-06
9.23658e-06
1.04134e-05
4.79427e-06
2.98706e-06
4.39441e-06
5.13874e-06
6.49099e-06
4.69586e-06
2.0378e-06
1.11335e-06
3.76831e-06
6.73377e-06
6.2624e-06
3.87109e-06
4.97535e-06
1.24042e-05
9.64527e-06
3.15126e-06
5.37849e-06
8.44561e-06
7.50097e-06
5.91586e-06
8.01875e-06
3.52961e-06
8.95991e-06
1.04595e-05
1.50271e-05
1.8223e-05
1.56477e-05
2.57296e-06
5.94811e-06
6.41998e-06
8.69274e-06
2.26293e-05
1.89039e-05
7.72661e-06
5.36544e-06
8.02735e-06
7.205e-06
6.19984e-06
9.6684e-06
9.56619e-06
4.08688e-06
1.88156e-06
3.09633e-06
4.14015e-06
6.45751e-06
5.98488e-06
5.3926e-06
3.04907e-06
2.96602e-06
7.15352e-06
7.43994e-06
2.57639e-06
1.60181e-06
5.15141e-06
1.22927e-05
5.68788e-06
3.65781e-06
7.49795e-06
2.76459e-06
7.40024e-06
8.23384e-06
6.40488e-06
1.44709e-06
6.62183e-06
1.47411e-05
1.23475e-05
9.82359e-06
6.40048e-06
2.06125e-06
1.10102e-05
1.47736e-05
1.36369e-05
1.37596e-05
9.44452e-06
5.83618e-06
5.55833e-06
3.74235e-06
4.17416e-06
9.12256e-06
9.51823e-06
4.40062e-06
1.39168e-06
3.38982e-06
4.81785e-06
4.53235e-06
4.69999e-06
1.04098e-05
9.35954e-06
4.40582e-06
6.24405e-06
7.8025e-06
5.48561e-06
1.41212e-06
9.76261e-07
7.27306e-06
1.05713e-05
2.4008e-06
3.25032e-06
4.36169e-06
3.52509e-06
8.49699e-06
1.98898e-05
2.37871e-05
1.51051e-05
7.96677e-06
5.92046e-06
9.88467e-06