/*--------------------------------*- C++ -*----------------------------------*\
| =========                 |                                                 |
| \\      /  F ield         | OpenFOAM: The Open Source CFD Toolbox           |
|  \\    /   O peration     | Version:  5.x                                   |
|   \\  /    A nd           | Web:      www.OpenFOAM.org                      |
|    \\/     M anipulation  |                                                 |
\*---------------------------------------------------------------------------*/
FoamFile
{
    version     2.0;
    format      ascii;
    class       volScalarField;
    location    "1000";
    object      nut;
}
// * * * * * * * * * * * * * * * * * * * * * * * * * * * * * * * * * * * * * //

dimensions      [0 2 -1 0 0 0 0];

internalField   nonuniform List<scalar> 
60000
(
3.21326e-08
2.2299e-07
3.32864e-07
5.10662e-07
6.43821e-07
4.78013e-07
1.73643e-07
-1.16484e-07
-2.77889e-07
-2.47343e-07
-5.67778e-08
1.06284e-07
1.31505e-07
1.3946e-07
1.18022e-07
7.5891e-09
-1.13711e-07
-1.55148e-07
-6.14348e-08
5.1394e-08
6.17946e-08
6.10477e-08
9.31066e-08
4.88387e-08
-7.25943e-08
-1.23497e-07
-1.22252e-07
-1.33813e-07
-1.32845e-07
-1.22129e-07
-7.87671e-08
-3.62746e-08
-4.92269e-08
-1.11955e-07
-2.17449e-07
-3.27347e-07
-4.12198e-07
-4.47011e-07
-3.74017e-07
-1.92194e-07
1.72674e-07
5.01136e-07
5.99616e-07
9.08963e-07
1.20486e-06
8.47774e-07
1.95207e-07
-3.40871e-07
-6.57385e-07
-6.52978e-07
-3.26288e-07
1.80137e-08
1.19473e-07
1.90742e-07
1.8895e-07
2.12106e-08
-1.97582e-07
-3.18084e-07
-1.96027e-07
4.5299e-09
5.62374e-08
7.84957e-08
1.19499e-07
2.9508e-08
-1.41199e-07
-1.99048e-07
-2.00057e-07
-1.80367e-07
-1.41485e-07
-1.62672e-07
-9.90754e-08
-2.59824e-08
-6.34922e-08
-1.94002e-07
-3.69687e-07
-5.23219e-07
-6.60548e-07
-7.69627e-07
-7.25423e-07
-3.62519e-07
2.71977e-07
8.69785e-07
8.07257e-07
1.26674e-06
2.07382e-06
1.71488e-06
4.90053e-07
-6.86838e-07
-1.28469e-06
-1.35885e-06
-1.02208e-06
-4.74386e-07
-1.36293e-07
1.04152e-07
1.85408e-07
7.25084e-08
-2.30552e-07
-5.44876e-07
-5.36051e-07
-2.05072e-07
3.10044e-08
1.42039e-07
2.15251e-07
1.18862e-07
-2.24614e-08
-1.1194e-07
-2.31109e-07
-2.02698e-07
7.81641e-08
8.05122e-09
-4.80985e-08
6.01882e-08
3.2733e-09
-2.09321e-07
-4.48194e-07
-5.82405e-07
-7.09299e-07
-1.00684e-06
-1.18344e-06
-7.69156e-07
1.98534e-08
9.33114e-07
5.4074e-07
8.97756e-07
2.84278e-06
3.37355e-06
1.68843e-06
-3.30798e-07
-1.55793e-06
-1.79717e-06
-1.54883e-06
-9.3479e-07
-2.58085e-07
1.03405e-07
-5.08941e-09
-3.55575e-08
-1.94906e-07
-7.4438e-07
-1.02279e-06
-5.47629e-07
1.44134e-07
4.89561e-07
5.16749e-07
4.4397e-07
4.5437e-07
3.50373e-07
-2.19578e-08
-2.07118e-07
4.94839e-07
8.32415e-07
1.7438e-07
1.56781e-07
1.85403e-07
1.15509e-07
-1.11114e-07
-1.4405e-07
1.84716e-08
-5.17931e-07
-1.41782e-06
-1.27589e-06
-4.39331e-07
9.92502e-07
2.64934e-07
3.64254e-08
1.9349e-06
4.93312e-06
4.10002e-06
1.55086e-06
-8.03784e-07
-1.50124e-06
-1.0344e-06
-6.88641e-08
1.08054e-06
1.04404e-06
-2.96468e-07
-5.94515e-07
-3.41989e-07
-9.46095e-07
-1.51716e-06
-8.3215e-07
5.36345e-07
1.2737e-06
1.10067e-06
1.17191e-06
1.34633e-06
6.62936e-07
2.31053e-07
-2.48724e-08
9.62239e-07
2.31793e-06
1.16565e-06
2.90007e-07
4.49955e-07
9.89392e-07
1.12213e-06
1.53138e-06
2.90039e-06
2.3529e-06
-1.43931e-06
-2.4973e-06
-1.01604e-06
2.89307e-06
3.6227e-06
-9.10682e-06
3.1519e-07
4.00409e-06
6.76615e-06
4.95778e-06
2.30133e-06
-7.59233e-07
-3.36725e-07
2.04629e-06
3.93206e-06
3.00108e-06
-4.46017e-07
-1.52243e-06
-9.81406e-07
-1.2017e-06
-1.64966e-06
-6.16569e-07
1.41079e-06
2.62448e-06
1.98845e-06
2.46499e-06
3.63346e-06
5.96771e-07
-4.52557e-07
4.74699e-08
1.45832e-06
3.68353e-06
3.50311e-06
7.30931e-07
7.54784e-07
2.23399e-06
3.46842e-06
5.3264e-06
5.49186e-06
2.25859e-06
-1.2128e-06
-6.82409e-06
-1.35607e-06
9.61471e-06
1.19662e-05
-1.07091e-07
-1.57004e-05
1.49757e-06
6.50993e-06
7.73841e-06
5.94176e-06
3.62193e-06
8.92277e-07
6.42466e-06
8.24027e-06
4.98937e-06
-1.97256e-07
-2.12227e-06
-1.89473e-06
-1.63388e-06
-1.12277e-06
7.77762e-07
3.31896e-06
4.88995e-06
3.67917e-06
3.60634e-06
6.86827e-06
2.41298e-06
-2.56296e-06
-6.47039e-07
1.24205e-06
4.27814e-06
6.14549e-06
8.43514e-07
2.93351e-07
3.01051e-06
5.99615e-06
9.17013e-06
6.04156e-06
-6.84988e-07
-2.72171e-06
-1.0085e-05
8.06624e-07
1.77393e-05
1.49597e-05
4.83077e-06
-1.02052e-05
-2.74727e-06
4.04585e-06
8.69654e-06
9.02976e-06
7.99416e-06
7.05446e-06
1.13428e-05
1.14998e-05
5.827e-06
6.4556e-07
-1.82049e-06
-2.48228e-06
-2.14036e-06
-7.64798e-07
2.33078e-06
5.72513e-06
7.50101e-06
6.18211e-06
3.67271e-06
5.62585e-06
6.89093e-06
-3.28569e-07
-3.21506e-06
2.33242e-07
3.57347e-06
6.82348e-06
-4.82824e-07
-1.52666e-06
3.17489e-06
8.63842e-06
1.21087e-05
4.78074e-06
-2.59396e-06
-3.60126e-06
-5.11737e-06
2.29574e-06
1.14839e-05
9.37944e-06
-2.32727e-06
-8.39057e-06
-2e-05
2.47945e-07
9.52127e-06
1.57399e-05
1.58384e-05
1.29939e-05
9.54842e-06
7.29649e-06
4.76609e-06
1.89748e-06
-7.6203e-07
-1.76404e-06
-1.00347e-06
8.1966e-08
2.52274e-06
5.28191e-06
6.78029e-06
3.88693e-06
1.12227e-06
1.56348e-06
1.02193e-05
1.14121e-05
2.44263e-06
-2.68367e-06
2.23468e-06
-9.64199e-08
-2.81634e-06
-2.08471e-06
3.1475e-06
1.16264e-05
1.62634e-05
5.916e-06
-3.35248e-06
-4.24136e-06
4.63049e-07
9.08047e-07
-1.05831e-05
-2.88049e-06
-1.94278e-06
-1.54812e-05
-1.78784e-05
-2e-05
3.54775e-06
2.05142e-05
3.15218e-05
2.7484e-05
1.75615e-05
8.73805e-06
3.21756e-06
-1.92727e-07
3.99366e-07
5.65243e-07
2.47775e-06
1.89337e-06
1.47e-06
1.70432e-06
2.627e-06
-4.68021e-06
-5.92467e-06
1.2993e-06
1.30942e-05
2.10803e-05
1.25731e-05
-3.85837e-07
3.94992e-06
-4.89346e-06
-5.70808e-06
1.4624e-06
4.62214e-06
1.3266e-05
1.70412e-05
8.68614e-06
-5.1957e-06
-9.31623e-06
3.53772e-06
2.11578e-06
-2e-05
-8.79857e-08
6.31908e-06
-7.70586e-06
-4.68803e-06
-2e-05
-2e-05
6.73746e-06
3.14362e-05
4.24889e-05
3.2646e-05
1.31154e-05
-1.03558e-06
-1.19955e-05
-4.10783e-06
2.6476e-06
4.26825e-06
3.21405e-06
1.75375e-06
-8.69374e-07
-1.63559e-07
-1.01818e-05
-1.29868e-05
3.01596e-06
1.30636e-05
2.22983e-05
1.78694e-05
-1.45523e-06
3.97603e-06
-4.25814e-06
-3.65442e-06
6.20395e-06
9.09781e-06
1.60261e-05
1.6911e-05
8.33451e-06
-8.31385e-06
-1.66631e-05
6.99486e-06
4.76072e-07
-1.24179e-05
6.19231e-06
4.53622e-07
-1.005e-05
3.0736e-06
-6.11962e-06
-1.0424e-05
1.55955e-05
9.77091e-06
3.36036e-05
3.75277e-05
1.86471e-05
3.09935e-06
-1.2362e-05
-1.04301e-05
7.37541e-07
4.99689e-06
6.98916e-06
5.96737e-06
4.85981e-07
3.69607e-07
-5.0126e-06
-6.7366e-06
6.96357e-06
9.72504e-06
1.91221e-05
2.48525e-05
5.24185e-06
3.10726e-06
-2.07674e-06
-2.39274e-06
2.63995e-06
8.698e-06
2.08988e-05
2.02594e-05
3.8343e-06
-9.00696e-06
-8.26258e-06
1.01088e-05
7.37422e-07
-4.27249e-06
-3.51598e-06
-1.18864e-05
-1.47813e-05
5.96655e-07
5.00901e-06
-5.12822e-06
-9.11278e-07
3.13354e-06
1.31809e-05
2.27784e-05
1.2341e-05
1.91022e-06
-3.99101e-06
-3.70545e-06
6.11277e-06
1.02085e-05
1.17711e-05
1.05988e-05
3.91159e-06
3.73513e-06
4.37873e-06
1.22858e-05
1.75697e-05
9.48531e-06
1.54705e-05
3.14338e-05
2.47864e-05
7.90753e-06
4.04353e-07
-4.30424e-06
6.80673e-07
8.26312e-06
2.17996e-05
2.49099e-05
4.94896e-06
2.14117e-06
4.31206e-06
1.19775e-05
9.24966e-06
2.56191e-06
-8.74409e-06
-1.35305e-05
-1.03851e-05
-1.68609e-06
4.28385e-06
-2.93108e-06
-1.12795e-05
-1.09297e-06
3.17935e-06
6.08842e-06
2.52044e-06
-2.64844e-07
2.71196e-06
1.7246e-06
9.08728e-06
1.04628e-05
1.26249e-05
1.38124e-05
8.60244e-06
6.67834e-06
1.22233e-05
2.97381e-05
3.91205e-05
2.2423e-05
1.63786e-05
2.69144e-05
2.59122e-05
1.72529e-05
8.75356e-06
1.65827e-06
7.34592e-06
1.23139e-05
2.49206e-05
3.68934e-05
2.31999e-05
3.03082e-05
2.00943e-05
1.70276e-05
1.21421e-05
6.45104e-06
-2.3584e-06
-8.33837e-06
-1.97842e-06
1.39723e-06
6.11054e-06
-1.28593e-05
-1.58043e-05
-1.40032e-06
4.8485e-06
1.65151e-06
-2.80668e-06
-2.02707e-07
1.66635e-05
7.61097e-06
5.09709e-06
-2.45898e-06
2.53764e-06
1.10163e-05
1.51881e-05
1.64162e-05
2.87053e-05
2.03537e-05
3.57652e-05
2.62394e-05
7.40655e-06
2.20703e-07
1.73917e-05
1.88656e-05
1.05972e-05
4.39982e-06
4.3199e-06
2.65104e-05
3.99474e-05
4.59924e-05
5.49702e-05
5.16568e-05
3.31703e-05
1.79921e-05
1.44496e-05
9.14782e-06
3.18301e-06
-7.21809e-06
-7.70248e-06
-5.13085e-07
8.13959e-09
-7.7753e-06
-5.8445e-06
-1.32096e-06
4.05899e-06
8.86982e-06
4.53105e-06
2.21951e-06
1.67448e-05
1.95607e-05
3.78408e-06
-2e-05
-1.61458e-05
3.04566e-06
1.68624e-05
3.4742e-05
5.10201e-05
3.44795e-05
3.01879e-05
3.03089e-05
1.13853e-05
-5.14242e-06
4.89614e-06
9.01252e-06
4.31331e-06
4.06196e-06
7.73183e-06
3.46352e-05
3.19833e-05
1.83252e-05
3.29741e-05
5.77079e-05
5.7359e-05
3.19307e-05
1.26677e-05
7.64832e-06
4.16837e-06
-6.22343e-07
1.51769e-06
5.56832e-07
-3.98039e-06
-1.37325e-05
2.51588e-06
5.64183e-06
4.2803e-06
5.5069e-06
5.03062e-06
5.49664e-06
1.47364e-05
2.1456e-05
7.9801e-06
-2e-05
-2e-05
-6.74692e-06
6.06132e-06
2.7687e-05
4.77342e-05
3.55413e-05
2.05578e-05
1.62927e-05
1.24474e-05
2.47028e-06
-1.7728e-06
-1.19798e-06
-4.81068e-06
-5.14615e-06
5.08899e-06
2.99605e-05
4.01759e-05
1.82631e-05
1.26615e-05
2.52065e-05
3.53345e-05
2.61048e-05
6.5301e-06
3.77636e-06
5.85527e-06
7.47858e-06
1.0212e-05
8.84469e-06
2.52455e-06
-2.37763e-06
3.41742e-06
9.09446e-06
9.32577e-06
8.83507e-06
3.08456e-06
5.15406e-06
9.17461e-06
1.31709e-05
1.22128e-06
-1.82003e-05
-1.90875e-05
1.19493e-06
5.54995e-06
1.87254e-05
3.25354e-05
2.66883e-05
1.4193e-05
6.41535e-06
3.75154e-06
7.98041e-07
-4.25531e-06
-9.55111e-06
-6.68411e-06
-6.12938e-06
1.94094e-06
1.48999e-05
2.5717e-05
1.08904e-05
4.37148e-06
6.44195e-06
1.38929e-05
1.37667e-05
1.5545e-06
8.5317e-07
2.58494e-06
4.28432e-06
5.3869e-06
5.27275e-06
6.10993e-06
8.47256e-06
7.46623e-06
4.87163e-06
3.41328e-06
1.93101e-06
2.7599e-06
2.96131e-06
5.88516e-06
6.39125e-06
-6.41985e-07
-2e-05
-7.29262e-06
5.03242e-06
6.22376e-06
1.28637e-05
2.3443e-05
2.57711e-05
2.06077e-05
1.45534e-05
8.36931e-06
2.1004e-06
-2.25119e-06
-7.55788e-06
-4.71814e-06
-2.22621e-06
3.27574e-07
4.4006e-06
8.48557e-06
2.10655e-06
1.28916e-06
1.11233e-06
2.08286e-06
3.63955e-06
2.65423e-06
1.80149e-06
8.39906e-07
1.54293e-06
2.8012e-06
4.24991e-06
4.64374e-06
6.86494e-06
8.98975e-06
1.82106e-06
-1.43459e-07
1.66065e-06
3.21547e-06
1.16633e-06
1.68321e-06
6.20753e-06
6.70241e-06
-4.19749e-07
-1.08685e-06
3.41862e-07
1.05723e-06
2.67865e-06
1.15793e-05
2.03379e-05
2.17262e-05
2.03328e-05
1.59449e-05
4.09007e-06
-1.34093e-06
3.42654e-06
4.67488e-06
2.21933e-06
1.28424e-06
-7.33146e-07
-7.26564e-07
-1.00026e-06
1.3104e-06
3.40366e-06
2.16203e-06
1.76716e-06
3.65598e-06
4.84387e-06
5.89324e-06
4.1942e-06
3.28077e-06
3.28752e-06
1.3191e-06
1.69543e-06
5.19564e-06
7.68796e-06
4.54898e-06
4.96808e-06
4.27074e-06
1.25802e-06
1.39781e-06
3.94551e-06
6.14221e-06
4.73457e-06
1.45622e-07
-2.80212e-06
-7.92752e-06
-1.1199e-05
5.13776e-06
2.04329e-05
2.17302e-05
1.46296e-05
6.50467e-06
2.01983e-06
4.21235e-06
6.46955e-06
3.56515e-06
3.15897e-06
3.72553e-06
3.6881e-06
2.97043e-06
8.0708e-07
-1.69007e-06
-1.63878e-06
4.00233e-07
2.4744e-06
-3.02552e-07
2.95375e-06
8.97721e-06
9.33797e-06
6.07371e-06
3.24425e-06
7.82158e-07
-1.33151e-06
-2.81527e-06
2.00492e-06
7.08567e-06
7.41947e-06
7.96955e-06
8.68838e-06
4.74087e-06
2.59713e-06
5.93478e-06
6.53207e-06
9.46554e-07
-2.51524e-07
4.22683e-07
-4.6411e-06
2.88828e-06
1.63904e-05
1.62556e-05
1.07867e-05
7.06205e-06
5.39008e-06
5.04343e-06
5.38709e-06
5.95703e-06
7.90905e-06
1.076e-05
1.21638e-05
1.05904e-05
5.46253e-06
-2.07968e-06
-7.39784e-06
-6.10502e-06
-2.10573e-06
1.56535e-06
6.0896e-06
8.33878e-06
9.27809e-06
8.28121e-06
5.92013e-06
3.4621e-06
3.83607e-06
5.83598e-06
3.86255e-06
3.26764e-06
3.50967e-06
3.65655e-06
5.56686e-06
6.80308e-06
3.07933e-06
1.46568e-06
2.29299e-06
4.92529e-06
3.28956e-06
1.72614e-06
-5.29457e-08
5.17543e-07
7.17852e-06
7.65721e-06
7.57016e-06
8.96607e-06
9.01145e-06
5.69378e-06
9.26791e-07
-4.1533e-07
2.70766e-06
7.78755e-06
1.20495e-05
1.30103e-05
1.06119e-05
5.96703e-06
-3.63529e-07
-3.78616e-06
-1.26086e-06
-2.37466e-06
-2.49594e-07
1.38026e-06
2.45421e-06
4.29991e-06
6.05906e-06
5.56627e-06
2.67064e-06
3.29603e-06
1.44848e-06
8.17735e-07
2.15284e-06
1.69694e-06
8.24934e-08
-1.42226e-06
-4.1167e-06
-6.92248e-06
-1.76434e-06
2.79088e-06
2.13243e-06
9.80843e-07
1.22691e-06
1.91681e-06
2.9337e-06
4.39014e-06
6.20384e-06
7.9941e-06
8.6323e-06
6.29008e-06
1.71411e-06
-3.07394e-07
7.86491e-07
2.692e-06
3.95259e-06
4.75995e-06
5.28807e-06
4.76526e-06
3.46068e-06
7.29615e-07
-9.22108e-07
2.35331e-06
1.56914e-06
2.55549e-06
1.71998e-06
2.24499e-06
4.0427e-06
5.45662e-06
4.89675e-06
1.58651e-06
5.04752e-07
7.07474e-07
2.58749e-06
3.39566e-06
3.67241e-06
3.12645e-06
2.99974e-07
-3.3616e-06
-3.4767e-06
-2.1033e-07
1.78802e-06
2.2136e-06
2.74465e-06
2.02802e-06
1.39538e-06
2.3932e-06
3.42135e-06
4.7931e-06
6.35533e-06
6.39074e-06
2.48748e-06
-2.84998e-06
-3.49007e-06
-9.82523e-07
2.18416e-06
2.21361e-06
3.74798e-06
7.79153e-06
8.61232e-06
7.23259e-06
5.41228e-06
6.82253e-07
7.20149e-07
4.69019e-07
3.81384e-08
-2.19114e-07
-3.21206e-07
-4.70988e-07
-6.04542e-07
-6.69709e-07
-5.75012e-07
-4.07454e-07
-2.69311e-07
-1.01985e-07
1.91119e-07
2.58681e-07
5.05394e-08
-1.75631e-07
-2.52244e-07
-8.63637e-09
3.39178e-07
4.69429e-07
5.99131e-07
7.72301e-07
6.65113e-07
3.15237e-07
1.82494e-07
1.71657e-07
2.06857e-08
-1.03341e-07
3.14225e-08
3.0658e-07
3.05925e-07
1.19841e-07
7.84081e-08
1.59799e-07
2.06671e-07
1.47388e-07
1.11738e-07
1.81884e-07
4.51645e-07
9.92903e-07
1.18656e-06
8.69835e-07
2.92146e-07
-6.65548e-08
-3.48078e-07
-6.93232e-07
-9.34559e-07
-9.58254e-07
-7.51664e-07
-4.66283e-07
-2.55513e-07
-1.60213e-09
4.48287e-07
4.71544e-07
6.24811e-08
-2.98528e-07
-4.31365e-07
-1.04194e-07
4.30888e-07
6.63827e-07
8.73391e-07
1.13796e-06
9.42473e-07
4.33862e-07
2.82312e-07
3.27021e-07
8.83238e-08
-1.7942e-07
-5.48465e-08
3.88071e-07
4.82453e-07
2.48555e-07
1.26007e-07
1.79194e-07
2.749e-07
2.67648e-07
2.1792e-07
1.7965e-07
4.94896e-07
1.00002e-06
1.68538e-06
1.30306e-06
7.40636e-07
5.37787e-07
1.7005e-07
-8.01163e-07
-1.494e-06
-1.43308e-06
-9.45702e-07
-3.83311e-07
-2.53969e-08
3.93092e-07
1.16802e-06
1.13783e-06
2.00377e-07
-5.36776e-07
-7.82418e-07
-4.27876e-07
3.43628e-07
8.70796e-07
1.23341e-06
1.66188e-06
1.41487e-06
5.76173e-07
3.14659e-07
5.53707e-07
3.02224e-07
-2.98663e-07
-3.86699e-07
2.9058e-07
6.60987e-07
4.53557e-07
1.41593e-07
5.45317e-08
2.56076e-07
4.96708e-07
4.63972e-07
9.80106e-08
1.479e-07
2.64144e-07
1.68845e-06
1.31047e-06
7.44734e-07
1.27199e-06
1.59501e-06
2.23758e-07
-1.65572e-06
-2.30351e-06
-1.52964e-06
-3.73864e-07
3.13321e-07
1.01586e-06
2.45219e-06
2.68204e-06
7.93126e-07
-7.05825e-07
-1.17059e-06
-9.26022e-07
-5.06913e-09
1.09168e-06
1.8768e-06
2.39181e-06
2.11693e-06
8.32092e-07
1.83042e-07
5.74665e-07
4.84559e-07
-3.73283e-07
-1.04816e-06
-1.72547e-07
7.18112e-07
5.36461e-07
-3.54722e-08
-3.03797e-07
6.82482e-08
6.6762e-07
7.93987e-07
-3.40832e-07
-9.32548e-07
-3.58486e-06
1.06246e-06
1.50294e-06
4.55524e-07
9.93196e-07
2.73474e-06
2.74321e-06
-3.56756e-07
-2.83061e-06
-2.7661e-06
-9.3248e-07
5.65965e-07
1.27604e-06
3.36417e-06
4.86451e-06
2.17569e-06
-7.88287e-07
-1.73945e-06
-1.81577e-06
-5.44446e-07
1.38213e-06
3.24455e-06
3.9748e-06
3.1531e-06
1.44467e-06
2.33446e-07
5.11041e-07
3.61802e-07
-2.55988e-07
-1.8979e-06
-1.31016e-06
8.59084e-07
8.4057e-07
-5.63869e-07
-1.2205e-06
-1.12209e-07
1.70798e-06
3.61218e-06
-5.01916e-06
-1.4706e-05
-1.53066e-05
1.51152e-07
3.26127e-06
1.18118e-06
4.99768e-07
1.7074e-06
4.21083e-06
3.0517e-06
-1.32919e-06
-2.88949e-06
-1.96298e-06
1.03649e-06
9.11888e-07
1.54273e-06
3.67753e-06
3.00204e-06
-1.24986e-06
-2.49876e-06
-2.92506e-06
-1.36128e-06
1.86543e-06
5.30565e-06
7.32033e-06
4.65408e-06
1.98524e-06
4.48295e-07
6.87974e-07
-1.96047e-07
-4.66611e-08
-8.67068e-07
-2.98161e-06
1.21906e-06
1.54488e-06
9.49585e-07
9.5368e-07
2.51908e-06
1.32797e-05
1.34213e-05
-1.73413e-06
-9.55877e-06
-7.5576e-06
-8.52304e-06
6.72885e-06
1.55173e-05
6.27669e-07
1.22903e-06
2.34092e-06
4.9138e-06
3.41239e-06
-9.62442e-07
-1.77068e-06
4.84485e-06
8.98431e-06
1.35281e-05
1.4902e-05
1.96264e-06
-2.57998e-06
-3.94185e-06
-4.63162e-06
-2.94589e-06
2.24018e-06
8.4039e-06
1.40692e-05
9.50735e-06
2.40692e-06
2.77697e-07
9.61314e-07
-5.61618e-07
-1.04084e-07
2.54646e-06
-5.21408e-06
7.58461e-07
-3.07429e-07
2.7595e-06
4.32854e-06
6.34893e-06
1.05212e-05
8.81835e-06
5.4352e-07
-7.65913e-06
-4.50825e-06
-7.2347e-06
1.91565e-05
5.17598e-05
5.49059e-06
6.15208e-07
1.69761e-06
4.57598e-06
6.56379e-06
3.96045e-06
5.81112e-08
8.11641e-06
1.04219e-05
7.00186e-06
3.14369e-06
1.19084e-07
-3.60333e-06
-5.07475e-06
-8.0541e-06
-8.63332e-06
-1.70416e-07
1.31241e-05
2.51372e-05
1.83442e-05
2.23598e-06
9.89606e-07
7.64304e-07
4.76331e-07
1.90309e-06
5.0151e-06
-1.14745e-06
-2.42661e-07
-5.21165e-06
2.38961e-06
6.66673e-06
9.86037e-06
8.05068e-06
3.75329e-06
1.13116e-06
-3.92736e-06
4.25583e-08
-1.29596e-05
8.97392e-06
4.64639e-05
1.15668e-05
-2.43955e-06
-1.543e-06
4.88965e-06
7.69894e-06
8.68935e-06
6.64503e-06
3.3821e-06
2.13237e-06
2.30256e-06
5.54436e-06
4.80026e-06
-3.77242e-07
-5.23945e-06
-1.0079e-05
-1.5404e-05
-8.36601e-06
1.19834e-05
3.05683e-05
1.91679e-05
1.42581e-06
2.84796e-06
2.68775e-06
2.01231e-06
4.16389e-06
8.34914e-06
4.6375e-06
2.77126e-06
-1.14958e-05
1.09266e-06
1.15977e-05
1.22409e-05
9.07175e-06
3.49617e-06
2.62904e-06
3.93632e-06
7.73329e-06
-2e-05
-1.07943e-05
1.6525e-05
1.09957e-06
1.28758e-06
-1.20896e-05
-1.28287e-06
7.19105e-06
1.45613e-05
1.59227e-05
7.62604e-06
8.72288e-07
5.83606e-06
7.70243e-06
7.57891e-06
5.47554e-06
4.96288e-07
-7.06219e-06
-1.175e-05
-1.01563e-05
3.25006e-06
2.23801e-05
1.261e-05
3.23808e-06
6.7671e-06
8.91585e-06
3.3687e-06
5.22108e-06
1.2405e-05
8.4001e-06
2.72049e-06
-6.19508e-06
2.24993e-07
1.48227e-05
1.51709e-05
1.16452e-05
4.68064e-06
4.28891e-06
1.23504e-05
6.21059e-06
-2e-05
-1.78488e-05
1.65049e-06
6.21227e-06
6.07188e-06
-2.10447e-06
-1.21257e-05
2.04639e-06
1.06836e-05
2.05881e-05
1.67358e-05
6.87561e-06
7.94543e-06
1.59983e-05
1.51284e-05
1.0054e-05
3.87308e-06
-3.40204e-06
-7.01183e-06
-5.74702e-06
8.20972e-07
1.15165e-05
4.55336e-06
6.08662e-06
7.32148e-06
1.05903e-05
5.89847e-06
2.96071e-06
6.82643e-06
4.44433e-06
1.16078e-06
1.48893e-06
2.60344e-06
1.08997e-05
1.60948e-05
1.2573e-05
5.96046e-06
6.00615e-06
1.65254e-05
-6.5642e-07
-2e-05
-1.29208e-05
-2.18042e-06
4.5701e-06
6.51071e-06
5.16528e-06
-3.88606e-06
-4.26485e-06
5.64114e-06
1.10485e-05
1.33761e-05
6.47083e-06
5.90158e-06
1.35035e-05
1.77427e-05
1.41979e-05
7.64865e-06
3.96008e-06
-2.76259e-07
-1.39058e-07
7.01391e-06
9.77599e-06
8.89877e-07
4.01222e-06
5.22977e-06
8.67339e-06
7.70237e-06
4.48796e-06
1.14952e-05
2.7766e-06
-1.11802e-06
1.49743e-06
6.77469e-06
7.741e-06
1.06358e-05
8.62687e-06
6.27273e-06
1.13193e-05
1.59904e-05
9.26902e-06
-4.59944e-06
-6.89364e-06
-8.8483e-06
5.22551e-06
4.09718e-06
2.77015e-06
3.08079e-06
-1.77467e-06
3.25459e-06
-1.54962e-06
3.16291e-06
2.32293e-06
5.35032e-06
1.12818e-05
1.24356e-05
1.28973e-05
1.20815e-05
1.17082e-05
5.49817e-06
2.64104e-06
1.70201e-05
1.78215e-05
5.48691e-06
3.45698e-06
4.77281e-06
4.61682e-06
5.35164e-06
3.04487e-08
8.31425e-06
-3.02532e-06
6.34145e-07
5.7097e-06
1.06544e-05
8.95906e-06
9.07597e-06
4.77834e-06
4.91275e-06
1.74878e-05
2.2227e-05
2.65007e-05
1.35842e-05
-8.60272e-07
-3.38951e-06
3.30493e-06
3.26345e-06
1.68382e-05
2.38344e-05
2.82003e-06
2.04078e-06
-2.8667e-06
-8.19923e-06
-4.37579e-06
7.50705e-06
1.98532e-05
1.44944e-05
1.03865e-05
8.20654e-06
9.52301e-06
6.11356e-06
-1.15157e-06
1.99374e-05
3.05264e-05
1.69159e-05
1.08464e-05
9.98403e-06
2.17142e-06
4.98592e-07
2.20233e-06
3.69555e-06
3.82924e-06
9.68552e-06
1.38228e-05
1.02368e-05
9.27304e-06
5.14028e-06
1.83049e-06
-1.48974e-06
1.45819e-05
3.14875e-05
2.52882e-05
1.15771e-05
2.12687e-07
-1.96052e-06
7.38427e-06
1.24986e-05
1.76774e-05
5.81164e-06
-7.00689e-06
-5.99569e-06
2.27719e-06
-1.3521e-06
-2.62612e-06
2.87194e-06
1.27174e-05
7.17325e-06
1.7416e-06
-2.2818e-06
1.27713e-06
2.06022e-06
1.20092e-06
9.05821e-06
3.19518e-05
2.89796e-05
2.61553e-05
2.38084e-05
1.12422e-05
1.14691e-05
5.2675e-06
7.94581e-06
7.95242e-06
8.98727e-06
1.28064e-05
1.06297e-05
1.01729e-05
1.29134e-06
-6.96531e-07
-7.339e-06
6.49193e-06
2.53373e-05
1.56107e-05
8.23502e-06
2.28845e-06
-2.38609e-06
-9.57324e-07
1.32663e-05
9.5952e-06
3.02939e-06
-8.28414e-07
-6.96848e-07
5.63568e-06
8.05944e-06
3.34178e-06
2.23832e-06
7.89808e-06
7.73491e-06
-7.01685e-06
-2e-05
-4.90543e-06
-1.15059e-06
4.67397e-06
9.89468e-06
2.65742e-05
3.0491e-05
3.13733e-05
2.83947e-05
1.7826e-05
2.01544e-05
6.80069e-06
9.22809e-06
4.63899e-06
-3.97206e-06
4.45414e-07
1.23016e-05
1.52727e-05
2.74985e-06
6.68199e-06
6.42572e-06
1.08356e-05
1.692e-05
4.33558e-06
4.69609e-06
1.00702e-05
9.42147e-06
1.6679e-06
9.85645e-07
-1.23151e-06
-5.18895e-06
1.84369e-06
4.53397e-06
5.90054e-06
6.84075e-06
1.91259e-06
2.62694e-06
8.47924e-06
1.22547e-05
6.0404e-06
-4.92038e-06
-3.45539e-06
2.48492e-06
1.3719e-06
1.05075e-05
2.58201e-05
3.29546e-05
3.48503e-05
3.55914e-05
3.47939e-05
1.18375e-05
6.01078e-06
4.42744e-06
-1.63508e-06
-8.26647e-06
-1.97651e-06
7.67716e-06
1.04441e-05
1.91944e-07
4.10942e-06
7.18794e-06
9.07663e-06
6.9341e-06
-2.25211e-06
2.99397e-06
1.45148e-05
1.44065e-05
8.11756e-06
5.35913e-06
1.11102e-06
-4.35381e-07
6.7419e-06
1.26078e-05
1.04919e-05
4.54635e-06
5.03389e-07
2.5858e-06
5.42332e-06
6.45057e-06
5.01939e-06
1.40736e-06
5.66268e-06
6.80287e-06
5.7953e-06
9.19889e-06
1.99209e-05
3.6195e-05
3.34102e-05
2.22824e-05
1.15841e-05
9.67634e-06
9.97204e-06
2.74958e-06
-3.2202e-06
-4.92711e-06
-3.79983e-06
1.13248e-06
4.54399e-06
-2.28301e-06
-8.44802e-07
2.52886e-06
3.03298e-06
-7.98201e-08
-5.38322e-06
1.43883e-07
4.00938e-06
6.30937e-06
8.88642e-06
1.00545e-05
9.4654e-06
7.31359e-06
7.54416e-06
4.87065e-06
5.56904e-06
1.87744e-06
-3.90209e-07
2.12615e-06
3.77587e-06
3.29334e-06
3.27686e-06
2.16218e-06
3.34099e-06
6.33461e-06
7.32138e-06
7.51211e-06
1.04667e-05
2.15126e-05
2.21815e-05
1.66396e-05
1.163e-05
1.06356e-05
9.75056e-06
3.45153e-06
-2.36302e-06
-2.3572e-06
-1.30798e-06
-3.34271e-06
-2.72841e-06
-2.43958e-06
-1.94606e-07
2.33133e-06
1.99561e-06
-1.02826e-06
5.1546e-07
-3.44243e-07
-4.84508e-07
4.26917e-07
3.80209e-06
8.62106e-06
1.06431e-05
1.08976e-05
1.11573e-05
5.24161e-06
2.99674e-06
4.09277e-06
1.97647e-06
-5.40633e-07
1.84339e-06
1.60059e-06
4.5281e-06
7.95191e-06
6.22013e-06
3.00401e-06
2.36895e-06
2.6602e-06
9.59005e-06
1.27434e-05
1.14355e-05
1.08453e-05
7.70834e-06
3.24775e-06
7.51011e-06
1.52718e-05
7.89594e-06
4.35869e-06
7.61003e-07
-2.3548e-06
-2.2935e-06
4.1991e-08
2.73419e-06
5.00262e-06
3.7977e-06
2.19455e-06
1.65538e-06
5.61982e-06
8.91064e-06
8.79803e-06
5.48738e-06
3.39019e-06
2.66616e-06
2.82192e-06
6.99683e-06
1.02092e-05
7.40587e-06
7.61861e-06
7.54928e-06
9.63275e-07
-1.80925e-06
-1.44335e-06
-1.74947e-07
6.36656e-06
1.03092e-05
6.35291e-06
-3.43373e-07
-2.37135e-06
4.81218e-06
1.35295e-05
1.25251e-05
1.10857e-05
8.97081e-06
7.38466e-06
7.28065e-06
6.6259e-06
4.89344e-06
3.57427e-06
2.30935e-06
5.74555e-07
-9.47147e-07
-1.72736e-06
-8.96976e-07
6.00231e-07
6.36549e-07
-2.14463e-07
-2.98419e-06
2.63798e-06
8.52829e-06
1.22179e-05
1.21217e-05
9.23726e-06
4.34185e-06
-1.48648e-06
-1.188e-06
3.97041e-06
8.6664e-06
8.6924e-06
8.60454e-06
7.68695e-06
1.4969e-06
-1.22226e-06
-1.53782e-06
3.75231e-07
4.005e-06
4.75528e-06
3.15013e-06
-9.05356e-07
1.63618e-06
7.04537e-06
1.0801e-05
1.08982e-05
1.0052e-05
9.82457e-06
1.17377e-05
1.35062e-05
1.30244e-05
1.12749e-05
9.35662e-06
7.38394e-06
4.57364e-06
2.81974e-07
-4.05596e-06
-5.66627e-06
-4.94704e-06
-4.11082e-06
4.08448e-06
4.34912e-06
4.18777e-06
6.72063e-06
8.61196e-06
8.71396e-06
7.49869e-06
5.82039e-06
3.54273e-06
6.94369e-07
1.51344e-06
2.22101e-06
3.5442e-06
3.72899e-06
-6.4896e-07
-5.83505e-06
-2.61229e-06
3.8115e-07
2.65167e-06
5.41885e-06
5.00897e-06
2.96084e-06
2.32043e-06
2.77389e-06
3.61359e-06
4.70695e-06
5.98613e-06
6.69752e-06
6.35235e-06
6.07303e-06
5.85456e-06
5.38565e-06
5.06407e-06
5.35802e-06
6.02214e-06
5.95916e-06
2.95456e-06
-7.54639e-07
-1.21615e-06
1.72899e-06
-1.3479e-06
-1.14691e-06
1.49422e-06
1.72458e-06
2.68871e-06
3.92618e-06
3.6598e-06
8.36884e-07
1.11118e-06
1.31106e-06
6.51911e-07
2.84114e-06
5.16823e-06
4.03329e-06
9.14942e-07
-4.88571e-06
-6.49312e-06
-9.14403e-07
2.19588e-06
1.50664e-06
2.02735e-06
3.31817e-06
3.22783e-06
2.5728e-06
2.2377e-06
2.11189e-06
2.99238e-06
3.74089e-06
3.38829e-06
1.98199e-06
1.49504e-06
1.38307e-06
1.00064e-06
1.65493e-06
4.52901e-06
5.73483e-06
4.79068e-06
3.32001e-06
6.4382e-07
5.75062e-07
2.15172e-06
-4.80502e-07
6.4865e-07
9.96361e-07
1.14007e-06
2.16171e-06
1.52896e-06
2.45976e-06
3.40613e-06
2.75936e-06
2.91684e-06
6.03411e-06
1.04719e-05
1.29093e-05
1.20836e-05
8.6526e-06
2.38978e-06
-2.46104e-06
-1.03807e-06
1.81984e-06
2.50701e-06
3.29003e-06
3.54825e-06
2.63469e-06
2.38902e-06
2.27888e-06
2.54692e-06
3.86273e-06
4.16794e-06
5.14916e-07
-2.46141e-06
-1.42272e-06
1.29906e-06
5.28785e-06
6.1094e-06
6.28032e-06
7.90082e-06
8.1432e-06
7.38803e-06
6.71616e-06
7.80788e-07
6.40795e-07
2.43591e-07
-2.28895e-08
-2.85581e-08
-1.48303e-08
-9.81668e-08
-8.63512e-08
2.45881e-08
1.92645e-08
-1.00583e-07
-1.66372e-07
-2.05958e-07
-3.08111e-07
-3.72356e-07
-4.01439e-07
-4.66385e-07
-4.23579e-07
-1.63012e-07
1.05992e-07
3.74674e-07
5.525e-07
5.03587e-07
3.92528e-07
2.81768e-07
1.13561e-07
2.59567e-08
1.01321e-07
1.97791e-07
2.56974e-07
3.00532e-07
3.23795e-07
3.45493e-07
2.6587e-07
1.43959e-07
1.52541e-07
3.24638e-07
4.97904e-07
6.01867e-07
6.94867e-07
1.22373e-06
1.17851e-06
6.24586e-07
3.88526e-08
-1.68463e-07
-2.19556e-07
-2.4193e-07
-1.53397e-07
1.71112e-07
2.17934e-07
3.33174e-08
-1.44645e-07
-2.34846e-07
-3.87001e-07
-5.34437e-07
-6.07039e-07
-6.89792e-07
-6.33813e-07
-2.70976e-07
1.54416e-07
5.77968e-07
8.88405e-07
8.5662e-07
6.85228e-07
4.97653e-07
2.36044e-07
9.79399e-08
1.65445e-07
2.69664e-07
3.53642e-07
4.43611e-07
5.13178e-07
5.55458e-07
4.14084e-07
2.22622e-07
2.05868e-07
4.40976e-07
7.3355e-07
9.19111e-07
1.03182e-06
1.53219e-06
1.7658e-06
1.39192e-06
5.9359e-07
1.36429e-08
-7.37216e-07
-5.76919e-07
-4.68472e-07
-4.82087e-08
5.16578e-07
6.10046e-07
3.20718e-07
-3.26654e-09
-2.03372e-07
-5.49571e-07
-8.66175e-07
-9.95329e-07
-8.90843e-07
-4.84491e-07
1.26373e-07
7.69623e-07
1.26413e-06
1.3297e-06
1.1377e-06
8.25294e-07
4.29341e-07
2.64101e-07
2.94074e-07
3.13057e-07
4.00773e-07
5.85179e-07
7.45901e-07
8.62685e-07
6.14347e-07
2.84801e-07
1.95015e-07
3.7262e-07
7.14817e-07
1.12242e-06
1.301e-06
1.23049e-06
1.7098e-06
1.86396e-06
1.44551e-06
1.1676e-06
-5.63984e-07
-7.86635e-07
-3.33329e-07
-5.28332e-07
2.37604e-07
1.34972e-06
1.41429e-06
6.60478e-07
2.73434e-07
-1.22452e-07
-8.59228e-07
-1.0256e-06
-7.96234e-07
-5.82762e-07
-3.71325e-08
7.86042e-07
1.40628e-06
1.4527e-06
1.23314e-06
8.7806e-07
4.41772e-07
3.47284e-07
3.96073e-07
2.17107e-07
2.25e-07
6.00162e-07
8.44665e-07
9.33083e-07
6.96392e-07
2.19955e-07
1.28658e-07
1.47593e-07
2.19012e-07
4.94731e-07
9.33632e-07
6.20095e-07
1.07649e-06
1.71572e-06
2.11014e-06
2.9791e-06
5.64511e-07
-2.16249e-07
3.13779e-08
-3.30649e-07
-3.56741e-07
1.16158e-06
2.64827e-06
1.92696e-06
5.54267e-07
3.17141e-07
-6.07199e-07
-9.81534e-07
-3.34345e-07
3.21517e-08
-1.08001e-07
7.04739e-07
1.66671e-06
1.57855e-06
9.80339e-07
5.32284e-07
2.28584e-07
1.89803e-07
3.50691e-07
5.61807e-09
-1.02443e-07
3.89633e-07
1.05889e-06
6.46638e-07
4.99554e-07
-3.57119e-07
3.2577e-08
1.14338e-07
-3.89304e-07
-1.02958e-06
1.90948e-07
-1.45665e-06
1.6252e-07
2.17821e-06
2.54625e-06
4.4239e-06
2.02762e-06
1.00232e-06
5.24521e-07
9.48449e-07
-9.15255e-07
6.7613e-08
2.67387e-06
3.52138e-06
1.53288e-06
3.38971e-07
-1.1391e-07
-7.6781e-07
-8.64497e-07
3.16051e-07
4.93164e-07
5.84824e-07
2.38661e-06
3.3982e-06
2.98364e-06
1.19358e-06
2.2547e-07
1.18981e-07
5.86082e-08
-3.6744e-07
-6.87644e-09
2.54091e-07
2.36229e-06
6.48459e-07
-8.29741e-08
-1.85184e-06
-2.20862e-07
3.18822e-07
-1.097e-06
-2.80269e-06
-3.37774e-06
-6.87213e-06
-1.87764e-06
1.02322e-05
1.13354e-05
4.96084e-06
3.07011e-06
3.95936e-06
4.36913e-06
1.28747e-06
-2.06335e-06
-7.32037e-07
1.16233e-06
3.39592e-06
3.02626e-06
1.34187e-06
9.84522e-07
8.96728e-07
-4.68577e-07
-1.18029e-06
4.60411e-07
6.73478e-07
3.90471e-06
8.8185e-06
7.74897e-06
4.81268e-07
2.33552e-07
1.03405e-06
6.53525e-07
7.63176e-08
1.25124e-06
2.27921e-06
4.03814e-06
1.2886e-06
1.83741e-07
-2.34705e-06
3.94118e-07
3.81647e-06
9.08526e-07
-2.05532e-06
-3.80368e-06
-1.00813e-05
-4.29946e-06
1.67597e-05
2.62034e-05
6.2741e-06
2.79764e-06
4.99453e-06
8.82247e-06
1.94156e-06
-1.91751e-06
6.05669e-07
8.61219e-07
2.14021e-06
3.72111e-06
2.69955e-06
2.18231e-06
2.19361e-06
9.27015e-07
-1.07557e-06
-1.89131e-07
9.66049e-07
6.07634e-06
1.1342e-05
9.1625e-06
5.24183e-07
2.81937e-07
2.0891e-06
2.4984e-06
1.22194e-06
1.16478e-06
1.24697e-06
5.19034e-06
3.33543e-06
5.92821e-08
-2.56493e-06
7.36729e-07
1.03455e-05
4.30146e-06
-2.02228e-06
-7.74417e-06
-1.02192e-05
-7.8248e-06
1.16095e-05
2.03741e-05
5.63679e-06
7.12793e-07
3.81638e-06
5.67465e-06
2.05801e-06
-7.6955e-07
1.37444e-07
2.59779e-06
4.55385e-06
4.43558e-06
4.29054e-06
3.50335e-06
1.82789e-06
1.32128e-06
-1.2082e-06
-1.30284e-07
4.03149e-06
9.87365e-06
1.14659e-05
8.04054e-06
8.23802e-07
5.84471e-07
3.317e-06
4.74181e-06
2.11647e-06
1.84262e-06
1.43436e-06
6.9203e-06
6.57162e-06
-6.90124e-07
4.05906e-07
9.27665e-07
1.34837e-05
7.34756e-06
5.43563e-07
-6.97574e-06
-2.74746e-06
-6.68858e-06
4.16215e-06
8.95033e-06
8.84814e-06
1.7456e-06
1.78186e-06
3.57185e-06
1.06527e-06
1.13689e-06
1.57483e-06
2.88662e-06
4.2896e-06
5.02525e-07
4.20716e-06
5.74989e-06
4.66898e-06
3.39239e-06
-2.7473e-06
1.0018e-06
1.07768e-05
1.62491e-05
1.16095e-05
5.32873e-06
1.26145e-06
3.58357e-06
4.7742e-06
6.1667e-06
2.2483e-06
3.74252e-06
3.35311e-06
4.46744e-06
9.50542e-06
3.87833e-06
2.40865e-06
1.61588e-06
8.17438e-06
8.77188e-06
2.81516e-06
-4.60803e-07
4.28621e-07
-8.04492e-06
3.55609e-06
8.75909e-06
7.47e-06